+ 0.1 0 2 cbr 210 ------- 1 0.0 3.0 0 0
- 0.1 0 2 cbr 210 ------- 1 0.0 3.0 0 0
+ 0.10375 0 2 cbr 210 ------- 1 0.0 3.0 1 1
- 0.10375 0 2 cbr 210 ------- 1 0.0 3.0 1 1
+ 0.1075 0 2 cbr 210 ------- 1 0.0 3.0 2 2
- 0.1075 0 2 cbr 210 ------- 1 0.0 3.0 2 2
+ 0.11125 0 2 cbr 210 ------- 1 0.0 3.0 3 3
- 0.11125 0 2 cbr 210 ------- 1 0.0 3.0 3 3
+ 0.115 0 2 cbr 210 ------- 1 0.0 3.0 4 4
- 0.115 0 2 cbr 210 ------- 1 0.0 3.0 4 4
+ 0.11875 0 2 cbr 210 ------- 1 0.0 3.0 5 5
- 0.11875 0 2 cbr 210 ------- 1 0.0 3.0 5 5
+ 0.1225 0 2 cbr 210 ------- 1 0.0 3.0 6 6
- 0.1225 0 2 cbr 210 ------- 1 0.0 3.0 6 6
+ 0.12625 0 2 cbr 210 ------- 1 0.0 3.0 7 7
- 0.12625 0 2 cbr 210 ------- 1 0.0 3.0 7 7
+ 0.13 0 2 cbr 210 ------- 1 0.0 3.0 8 8
- 0.13 0 2 cbr 210 ------- 1 0.0 3.0 8 8
+ 0.13375 0 2 cbr 210 ------- 1 0.0 3.0 9 9
- 0.13375 0 2 cbr 210 ------- 1 0.0 3.0 9 9
+ 0.1375 0 2 cbr 210 ------- 1 0.0 3.0 10 10
- 0.1375 0 2 cbr 210 ------- 1 0.0 3.0 10 10
+ 0.14125 0 2 cbr 210 ------- 1 0.0 3.0 11 11
- 0.14125 0 2 cbr 210 ------- 1 0.0 3.0 11 11
+ 0.145 0 2 cbr 210 ------- 1 0.0 3.0 12 12
- 0.145 0 2 cbr 210 ------- 1 0.0 3.0 12 12
+ 0.14875 0 2 cbr 210 ------- 1 0.0 3.0 13 13
- 0.14875 0 2 cbr 210 ------- 1 0.0 3.0 13 13
+ 0.1525 0 2 cbr 210 ------- 1 0.0 3.0 14 14
- 0.1525 0 2 cbr 210 ------- 1 0.0 3.0 14 14
+ 0.15625 0 2 cbr 210 ------- 1 0.0 3.0 15 15
- 0.15625 0 2 cbr 210 ------- 1 0.0 3.0 15 15
+ 0.16 0 2 cbr 210 ------- 1 0.0 3.0 16 16
- 0.16 0 2 cbr 210 ------- 1 0.0 3.0 16 16
+ 0.16375 0 2 cbr 210 ------- 1 0.0 3.0 17 17
- 0.16375 0 2 cbr 210 ------- 1 0.0 3.0 17 17
+ 0.1675 0 2 cbr 210 ------- 1 0.0 3.0 18 18
- 0.1675 0 2 cbr 210 ------- 1 0.0 3.0 18 18
+ 0.17125 0 2 cbr 210 ------- 1 0.0 3.0 19 19
- 0.17125 0 2 cbr 210 ------- 1 0.0 3.0 19 19
+ 0.175 0 2 cbr 210 ------- 1 0.0 3.0 20 20
- 0.175 0 2 cbr 210 ------- 1 0.0 3.0 20 20
+ 0.17875 0 2 cbr 210 ------- 1 0.0 3.0 21 21
- 0.17875 0 2 cbr 210 ------- 1 0.0 3.0 21 21
+ 0.1825 0 2 cbr 210 ------- 1 0.0 3.0 22 22
- 0.1825 0 2 cbr 210 ------- 1 0.0 3.0 22 22
+ 0.18625 0 2 cbr 210 ------- 1 0.0 3.0 23 23
- 0.18625 0 2 cbr 210 ------- 1 0.0 3.0 23 23
+ 0.19 0 2 cbr 210 ------- 1 0.0 3.0 24 24
- 0.19 0 2 cbr 210 ------- 1 0.0 3.0 24 24
+ 0.19375 0 2 cbr 210 ------- 1 0.0 3.0 25 25
- 0.19375 0 2 cbr 210 ------- 1 0.0 3.0 25 25
+ 0.1975 0 2 cbr 210 ------- 1 0.0 3.0 26 26
- 0.1975 0 2 cbr 210 ------- 1 0.0 3.0 26 26
+ 0.20125 0 2 cbr 210 ------- 1 0.0 3.0 27 27
- 0.20125 0 2 cbr 210 ------- 1 0.0 3.0 27 27
+ 0.205 0 2 cbr 210 ------- 1 0.0 3.0 28 28
- 0.205 0 2 cbr 210 ------- 1 0.0 3.0 28 28
+ 0.20875 0 2 cbr 210 ------- 1 0.0 3.0 29 29
- 0.20875 0 2 cbr 210 ------- 1 0.0 3.0 29 29
+ 0.2125 0 2 cbr 210 ------- 1 0.0 3.0 30 30
- 0.2125 0 2 cbr 210 ------- 1 0.0 3.0 30 30
+ 0.21625 0 2 cbr 210 ------- 1 0.0 3.0 31 31
- 0.21625 0 2 cbr 210 ------- 1 0.0 3.0 31 31
+ 0.22 0 2 cbr 210 ------- 1 0.0 3.0 32 32
- 0.22 0 2 cbr 210 ------- 1 0.0 3.0 32 32
+ 0.22375 0 2 cbr 210 ------- 1 0.0 3.0 33 33
- 0.22375 0 2 cbr 210 ------- 1 0.0 3.0 33 33
+ 0.2275 0 2 cbr 210 ------- 1 0.0 3.0 34 34
- 0.2275 0 2 cbr 210 ------- 1 0.0 3.0 34 34
+ 0.23125 0 2 cbr 210 ------- 1 0.0 3.0 35 35
- 0.23125 0 2 cbr 210 ------- 1 0.0 3.0 35 35
+ 0.235 0 2 cbr 210 ------- 1 0.0 3.0 36 36
- 0.235 0 2 cbr 210 ------- 1 0.0 3.0 36 36
+ 0.23875 0 2 cbr 210 ------- 1 0.0 3.0 37 37
- 0.23875 0 2 cbr 210 ------- 1 0.0 3.0 37 37
+ 0.2425 0 2 cbr 210 ------- 1 0.0 3.0 38 38
- 0.2425 0 2 cbr 210 ------- 1 0.0 3.0 38 38
+ 0.24625 0 2 cbr 210 ------- 1 0.0 3.0 39 39
- 0.24625 0 2 cbr 210 ------- 1 0.0 3.0 39 39
+ 0.25 0 2 cbr 210 ------- 1 0.0 3.0 40 40
- 0.25 0 2 cbr 210 ------- 1 0.0 3.0 40 40
+ 0.25375 0 2 cbr 210 ------- 1 0.0 3.0 41 41
- 0.25375 0 2 cbr 210 ------- 1 0.0 3.0 41 41
+ 0.2575 0 2 cbr 210 ------- 1 0.0 3.0 42 42
- 0.2575 0 2 cbr 210 ------- 1 0.0 3.0 42 42
+ 0.26125 0 2 cbr 210 ------- 1 0.0 3.0 43 43
- 0.26125 0 2 cbr 210 ------- 1 0.0 3.0 43 43
+ 0.265 0 2 cbr 210 ------- 1 0.0 3.0 44 44
- 0.265 0 2 cbr 210 ------- 1 0.0 3.0 44 44
+ 0.26875 0 2 cbr 210 ------- 1 0.0 3.0 45 45
- 0.26875 0 2 cbr 210 ------- 1 0.0 3.0 45 45
+ 0.2725 0 2 cbr 210 ------- 1 0.0 3.0 46 46
- 0.2725 0 2 cbr 210 ------- 1 0.0 3.0 46 46
+ 0.27625 0 2 cbr 210 ------- 1 0.0 3.0 47 47
- 0.27625 0 2 cbr 210 ------- 1 0.0 3.0 47 47
+ 0.28 0 2 cbr 210 ------- 1 0.0 3.0 48 48
- 0.28 0 2 cbr 210 ------- 1 0.0 3.0 48 48
+ 0.28375 0 2 cbr 210 ------- 1 0.0 3.0 49 49
- 0.28375 0 2 cbr 210 ------- 1 0.0 3.0 49 49
+ 0.2875 0 2 cbr 210 ------- 1 0.0 3.0 50 50
- 0.2875 0 2 cbr 210 ------- 1 0.0 3.0 50 50
+ 0.29125 0 2 cbr 210 ------- 1 0.0 3.0 51 51
- 0.29125 0 2 cbr 210 ------- 1 0.0 3.0 51 51
+ 0.295 0 2 cbr 210 ------- 1 0.0 3.0 52 52
- 0.295 0 2 cbr 210 ------- 1 0.0 3.0 52 52
+ 0.29875 0 2 cbr 210 ------- 1 0.0 3.0 53 53
- 0.29875 0 2 cbr 210 ------- 1 0.0 3.0 53 53
+ 0.3025 0 2 cbr 210 ------- 1 0.0 3.0 54 54
- 0.3025 0 2 cbr 210 ------- 1 0.0 3.0 54 54
+ 0.30625 0 2 cbr 210 ------- 1 0.0 3.0 55 55
- 0.30625 0 2 cbr 210 ------- 1 0.0 3.0 55 55
+ 0.31 0 2 cbr 210 ------- 1 0.0 3.0 56 56
- 0.31 0 2 cbr 210 ------- 1 0.0 3.0 56 56
+ 0.31375 0 2 cbr 210 ------- 1 0.0 3.0 57 57
- 0.31375 0 2 cbr 210 ------- 1 0.0 3.0 57 57
+ 0.3175 0 2 cbr 210 ------- 1 0.0 3.0 58 58
- 0.3175 0 2 cbr 210 ------- 1 0.0 3.0 58 58
+ 0.32125 0 2 cbr 210 ------- 1 0.0 3.0 59 59
- 0.32125 0 2 cbr 210 ------- 1 0.0 3.0 59 59
+ 0.325 0 2 cbr 210 ------- 1 0.0 3.0 60 60
- 0.325 0 2 cbr 210 ------- 1 0.0 3.0 60 60
+ 0.32875 0 2 cbr 210 ------- 1 0.0 3.0 61 61
- 0.32875 0 2 cbr 210 ------- 1 0.0 3.0 61 61
+ 0.3325 0 2 cbr 210 ------- 1 0.0 3.0 62 62
- 0.3325 0 2 cbr 210 ------- 1 0.0 3.0 62 62
+ 0.33625 0 2 cbr 210 ------- 1 0.0 3.0 63 63
- 0.33625 0 2 cbr 210 ------- 1 0.0 3.0 63 63
+ 0.34 0 2 cbr 210 ------- 1 0.0 3.0 64 64
- 0.34 0 2 cbr 210 ------- 1 0.0 3.0 64 64
+ 0.34375 0 2 cbr 210 ------- 1 0.0 3.0 65 65
- 0.34375 0 2 cbr 210 ------- 1 0.0 3.0 65 65
+ 0.3475 0 2 cbr 210 ------- 1 0.0 3.0 66 66
- 0.3475 0 2 cbr 210 ------- 1 0.0 3.0 66 66
+ 0.35125 0 2 cbr 210 ------- 1 0.0 3.0 67 67
- 0.35125 0 2 cbr 210 ------- 1 0.0 3.0 67 67
+ 0.355 0 2 cbr 210 ------- 1 0.0 3.0 68 68
- 0.355 0 2 cbr 210 ------- 1 0.0 3.0 68 68
+ 0.35875 0 2 cbr 210 ------- 1 0.0 3.0 69 69
- 0.35875 0 2 cbr 210 ------- 1 0.0 3.0 69 69
+ 0.3625 0 2 cbr 210 ------- 1 0.0 3.0 70 70
- 0.3625 0 2 cbr 210 ------- 1 0.0 3.0 70 70
+ 0.36625 0 2 cbr 210 ------- 1 0.0 3.0 71 71
- 0.36625 0 2 cbr 210 ------- 1 0.0 3.0 71 71
+ 0.37 0 2 cbr 210 ------- 1 0.0 3.0 72 72
- 0.37 0 2 cbr 210 ------- 1 0.0 3.0 72 72
+ 0.37375 0 2 cbr 210 ------- 1 0.0 3.0 73 73
- 0.37375 0 2 cbr 210 ------- 1 0.0 3.0 73 73
+ 0.3775 0 2 cbr 210 ------- 1 0.0 3.0 74 74
- 0.3775 0 2 cbr 210 ------- 1 0.0 3.0 74 74
+ 0.38125 0 2 cbr 210 ------- 1 0.0 3.0 75 75
- 0.38125 0 2 cbr 210 ------- 1 0.0 3.0 75 75
+ 0.385 0 2 cbr 210 ------- 1 0.0 3.0 76 76
- 0.385 0 2 cbr 210 ------- 1 0.0 3.0 76 76
+ 0.38875 0 2 cbr 210 ------- 1 0.0 3.0 77 77
- 0.38875 0 2 cbr 210 ------- 1 0.0 3.0 77 77
+ 0.3925 0 2 cbr 210 ------- 1 0.0 3.0 78 78
- 0.3925 0 2 cbr 210 ------- 1 0.0 3.0 78 78
+ 0.39625 0 2 cbr 210 ------- 1 0.0 3.0 79 79
- 0.39625 0 2 cbr 210 ------- 1 0.0 3.0 79 79
+ 0.4 0 2 cbr 210 ------- 1 0.0 3.0 80 80
- 0.4 0 2 cbr 210 ------- 1 0.0 3.0 80 80
r 0.400168 0 2 cbr 210 ------- 1 0.0 3.0 0 0
+ 0.400168 2 3 cbr 210 ------- 1 0.0 3.0 0 0
- 0.400168 2 3 cbr 210 ------- 1 0.0 3.0 0 0
+ 0.40375 0 2 cbr 210 ------- 1 0.0 3.0 81 81
- 0.40375 0 2 cbr 210 ------- 1 0.0 3.0 81 81
r 0.403918 0 2 cbr 210 ------- 1 0.0 3.0 1 1
+ 0.403918 2 3 cbr 210 ------- 1 0.0 3.0 1 1
- 0.403918 2 3 cbr 210 ------- 1 0.0 3.0 1 1
+ 0.4075 0 2 cbr 210 ------- 1 0.0 3.0 82 82
- 0.4075 0 2 cbr 210 ------- 1 0.0 3.0 82 82
r 0.407668 0 2 cbr 210 ------- 1 0.0 3.0 2 2
+ 0.407668 2 3 cbr 210 ------- 1 0.0 3.0 2 2
- 0.407668 2 3 cbr 210 ------- 1 0.0 3.0 2 2
+ 0.41125 0 2 cbr 210 ------- 1 0.0 3.0 83 83
- 0.41125 0 2 cbr 210 ------- 1 0.0 3.0 83 83
r 0.411418 0 2 cbr 210 ------- 1 0.0 3.0 3 3
+ 0.411418 2 3 cbr 210 ------- 1 0.0 3.0 3 3
- 0.411418 2 3 cbr 210 ------- 1 0.0 3.0 3 3
+ 0.415 0 2 cbr 210 ------- 1 0.0 3.0 84 84
- 0.415 0 2 cbr 210 ------- 1 0.0 3.0 84 84
r 0.415168 0 2 cbr 210 ------- 1 0.0 3.0 4 4
+ 0.415168 2 3 cbr 210 ------- 1 0.0 3.0 4 4
- 0.415168 2 3 cbr 210 ------- 1 0.0 3.0 4 4
+ 0.41875 0 2 cbr 210 ------- 1 0.0 3.0 85 85
- 0.41875 0 2 cbr 210 ------- 1 0.0 3.0 85 85
r 0.418918 0 2 cbr 210 ------- 1 0.0 3.0 5 5
+ 0.418918 2 3 cbr 210 ------- 1 0.0 3.0 5 5
- 0.418918 2 3 cbr 210 ------- 1 0.0 3.0 5 5
+ 0.4225 0 2 cbr 210 ------- 1 0.0 3.0 86 86
- 0.4225 0 2 cbr 210 ------- 1 0.0 3.0 86 86
r 0.422668 0 2 cbr 210 ------- 1 0.0 3.0 6 6
+ 0.422668 2 3 cbr 210 ------- 1 0.0 3.0 6 6
- 0.422668 2 3 cbr 210 ------- 1 0.0 3.0 6 6
+ 0.42625 0 2 cbr 210 ------- 1 0.0 3.0 87 87
- 0.42625 0 2 cbr 210 ------- 1 0.0 3.0 87 87
r 0.426418 0 2 cbr 210 ------- 1 0.0 3.0 7 7
+ 0.426418 2 3 cbr 210 ------- 1 0.0 3.0 7 7
- 0.426418 2 3 cbr 210 ------- 1 0.0 3.0 7 7
+ 0.43 0 2 cbr 210 ------- 1 0.0 3.0 88 88
- 0.43 0 2 cbr 210 ------- 1 0.0 3.0 88 88
r 0.430168 0 2 cbr 210 ------- 1 0.0 3.0 8 8
+ 0.430168 2 3 cbr 210 ------- 1 0.0 3.0 8 8
- 0.430168 2 3 cbr 210 ------- 1 0.0 3.0 8 8
+ 0.43375 0 2 cbr 210 ------- 1 0.0 3.0 89 89
- 0.43375 0 2 cbr 210 ------- 1 0.0 3.0 89 89
r 0.433918 0 2 cbr 210 ------- 1 0.0 3.0 9 9
+ 0.433918 2 3 cbr 210 ------- 1 0.0 3.0 9 9
- 0.433918 2 3 cbr 210 ------- 1 0.0 3.0 9 9
+ 0.4375 0 2 cbr 210 ------- 1 0.0 3.0 90 90
- 0.4375 0 2 cbr 210 ------- 1 0.0 3.0 90 90
r 0.437668 0 2 cbr 210 ------- 1 0.0 3.0 10 10
+ 0.437668 2 3 cbr 210 ------- 1 0.0 3.0 10 10
- 0.437668 2 3 cbr 210 ------- 1 0.0 3.0 10 10
+ 0.44125 0 2 cbr 210 ------- 1 0.0 3.0 91 91
- 0.44125 0 2 cbr 210 ------- 1 0.0 3.0 91 91
r 0.441418 0 2 cbr 210 ------- 1 0.0 3.0 11 11
+ 0.441418 2 3 cbr 210 ------- 1 0.0 3.0 11 11
- 0.441418 2 3 cbr 210 ------- 1 0.0 3.0 11 11
+ 0.445 0 2 cbr 210 ------- 1 0.0 3.0 92 92
- 0.445 0 2 cbr 210 ------- 1 0.0 3.0 92 92
r 0.445168 0 2 cbr 210 ------- 1 0.0 3.0 12 12
+ 0.445168 2 3 cbr 210 ------- 1 0.0 3.0 12 12
- 0.445168 2 3 cbr 210 ------- 1 0.0 3.0 12 12
+ 0.44875 0 2 cbr 210 ------- 1 0.0 3.0 93 93
- 0.44875 0 2 cbr 210 ------- 1 0.0 3.0 93 93
r 0.448918 0 2 cbr 210 ------- 1 0.0 3.0 13 13
+ 0.448918 2 3 cbr 210 ------- 1 0.0 3.0 13 13
- 0.448918 2 3 cbr 210 ------- 1 0.0 3.0 13 13
+ 0.4525 0 2 cbr 210 ------- 1 0.0 3.0 94 94
- 0.4525 0 2 cbr 210 ------- 1 0.0 3.0 94 94
r 0.452668 0 2 cbr 210 ------- 1 0.0 3.0 14 14
+ 0.452668 2 3 cbr 210 ------- 1 0.0 3.0 14 14
- 0.452668 2 3 cbr 210 ------- 1 0.0 3.0 14 14
+ 0.45625 0 2 cbr 210 ------- 1 0.0 3.0 95 95
- 0.45625 0 2 cbr 210 ------- 1 0.0 3.0 95 95
r 0.456418 0 2 cbr 210 ------- 1 0.0 3.0 15 15
+ 0.456418 2 3 cbr 210 ------- 1 0.0 3.0 15 15
- 0.456418 2 3 cbr 210 ------- 1 0.0 3.0 15 15
+ 0.46 0 2 cbr 210 ------- 1 0.0 3.0 96 96
- 0.46 0 2 cbr 210 ------- 1 0.0 3.0 96 96
r 0.460168 0 2 cbr 210 ------- 1 0.0 3.0 16 16
+ 0.460168 2 3 cbr 210 ------- 1 0.0 3.0 16 16
- 0.460168 2 3 cbr 210 ------- 1 0.0 3.0 16 16
+ 0.46375 0 2 cbr 210 ------- 1 0.0 3.0 97 97
- 0.46375 0 2 cbr 210 ------- 1 0.0 3.0 97 97
r 0.463918 0 2 cbr 210 ------- 1 0.0 3.0 17 17
+ 0.463918 2 3 cbr 210 ------- 1 0.0 3.0 17 17
- 0.463918 2 3 cbr 210 ------- 1 0.0 3.0 17 17
+ 0.4675 0 2 cbr 210 ------- 1 0.0 3.0 98 98
- 0.4675 0 2 cbr 210 ------- 1 0.0 3.0 98 98
r 0.467668 0 2 cbr 210 ------- 1 0.0 3.0 18 18
+ 0.467668 2 3 cbr 210 ------- 1 0.0 3.0 18 18
- 0.467668 2 3 cbr 210 ------- 1 0.0 3.0 18 18
+ 0.47125 0 2 cbr 210 ------- 1 0.0 3.0 99 99
- 0.47125 0 2 cbr 210 ------- 1 0.0 3.0 99 99
r 0.471418 0 2 cbr 210 ------- 1 0.0 3.0 19 19
+ 0.471418 2 3 cbr 210 ------- 1 0.0 3.0 19 19
- 0.471418 2 3 cbr 210 ------- 1 0.0 3.0 19 19
+ 0.475 0 2 cbr 210 ------- 1 0.0 3.0 100 100
- 0.475 0 2 cbr 210 ------- 1 0.0 3.0 100 100
r 0.475168 0 2 cbr 210 ------- 1 0.0 3.0 20 20
+ 0.475168 2 3 cbr 210 ------- 1 0.0 3.0 20 20
- 0.475168 2 3 cbr 210 ------- 1 0.0 3.0 20 20
+ 0.47875 0 2 cbr 210 ------- 1 0.0 3.0 101 101
- 0.47875 0 2 cbr 210 ------- 1 0.0 3.0 101 101
r 0.478918 0 2 cbr 210 ------- 1 0.0 3.0 21 21
+ 0.478918 2 3 cbr 210 ------- 1 0.0 3.0 21 21
- 0.478918 2 3 cbr 210 ------- 1 0.0 3.0 21 21
+ 0.4825 0 2 cbr 210 ------- 1 0.0 3.0 102 102
- 0.4825 0 2 cbr 210 ------- 1 0.0 3.0 102 102
r 0.482668 0 2 cbr 210 ------- 1 0.0 3.0 22 22
+ 0.482668 2 3 cbr 210 ------- 1 0.0 3.0 22 22
- 0.482668 2 3 cbr 210 ------- 1 0.0 3.0 22 22
+ 0.48625 0 2 cbr 210 ------- 1 0.0 3.0 103 103
- 0.48625 0 2 cbr 210 ------- 1 0.0 3.0 103 103
r 0.486418 0 2 cbr 210 ------- 1 0.0 3.0 23 23
+ 0.486418 2 3 cbr 210 ------- 1 0.0 3.0 23 23
- 0.486418 2 3 cbr 210 ------- 1 0.0 3.0 23 23
+ 0.49 0 2 cbr 210 ------- 1 0.0 3.0 104 104
- 0.49 0 2 cbr 210 ------- 1 0.0 3.0 104 104
r 0.490168 0 2 cbr 210 ------- 1 0.0 3.0 24 24
+ 0.490168 2 3 cbr 210 ------- 1 0.0 3.0 24 24
- 0.490168 2 3 cbr 210 ------- 1 0.0 3.0 24 24
+ 0.49375 0 2 cbr 210 ------- 1 0.0 3.0 105 105
- 0.49375 0 2 cbr 210 ------- 1 0.0 3.0 105 105
r 0.493918 0 2 cbr 210 ------- 1 0.0 3.0 25 25
+ 0.493918 2 3 cbr 210 ------- 1 0.0 3.0 25 25
- 0.493918 2 3 cbr 210 ------- 1 0.0 3.0 25 25
+ 0.4975 0 2 cbr 210 ------- 1 0.0 3.0 106 106
- 0.4975 0 2 cbr 210 ------- 1 0.0 3.0 106 106
r 0.497668 0 2 cbr 210 ------- 1 0.0 3.0 26 26
+ 0.497668 2 3 cbr 210 ------- 1 0.0 3.0 26 26
- 0.497668 2 3 cbr 210 ------- 1 0.0 3.0 26 26
+ 0.5 1 2 cbr 200 ------- 2 1.0 3.0 0 107
- 0.5 1 2 cbr 200 ------- 2 1.0 3.0 0 107
+ 0.501 1 2 cbr 200 ------- 2 1.0 3.0 1 108
- 0.501 1 2 cbr 200 ------- 2 1.0 3.0 1 108
+ 0.50125 0 2 cbr 210 ------- 1 0.0 3.0 107 109
- 0.50125 0 2 cbr 210 ------- 1 0.0 3.0 107 109
r 0.501418 0 2 cbr 210 ------- 1 0.0 3.0 27 27
+ 0.501418 2 3 cbr 210 ------- 1 0.0 3.0 27 27
- 0.501418 2 3 cbr 210 ------- 1 0.0 3.0 27 27
+ 0.502 1 2 cbr 200 ------- 2 1.0 3.0 2 110
- 0.502 1 2 cbr 200 ------- 2 1.0 3.0 2 110
+ 0.503 1 2 cbr 200 ------- 2 1.0 3.0 3 111
- 0.503 1 2 cbr 200 ------- 2 1.0 3.0 3 111
+ 0.504 1 2 cbr 200 ------- 2 1.0 3.0 4 112
- 0.504 1 2 cbr 200 ------- 2 1.0 3.0 4 112
+ 0.505 0 2 cbr 210 ------- 1 0.0 3.0 108 113
- 0.505 0 2 cbr 210 ------- 1 0.0 3.0 108 113
+ 0.505 1 2 cbr 200 ------- 2 1.0 3.0 5 114
- 0.505 1 2 cbr 200 ------- 2 1.0 3.0 5 114
r 0.505168 0 2 cbr 210 ------- 1 0.0 3.0 28 28
+ 0.505168 2 3 cbr 210 ------- 1 0.0 3.0 28 28
- 0.505168 2 3 cbr 210 ------- 1 0.0 3.0 28 28
+ 0.506 1 2 cbr 200 ------- 2 1.0 3.0 6 115
- 0.506 1 2 cbr 200 ------- 2 1.0 3.0 6 115
+ 0.507 1 2 cbr 200 ------- 2 1.0 3.0 7 116
- 0.507 1 2 cbr 200 ------- 2 1.0 3.0 7 116
+ 0.508 1 2 cbr 200 ------- 2 1.0 3.0 8 117
- 0.508 1 2 cbr 200 ------- 2 1.0 3.0 8 117
+ 0.50875 0 2 cbr 210 ------- 1 0.0 3.0 109 118
- 0.50875 0 2 cbr 210 ------- 1 0.0 3.0 109 118
r 0.508918 0 2 cbr 210 ------- 1 0.0 3.0 29 29
+ 0.508918 2 3 cbr 210 ------- 1 0.0 3.0 29 29
- 0.508918 2 3 cbr 210 ------- 1 0.0 3.0 29 29
+ 0.509 1 2 cbr 200 ------- 2 1.0 3.0 9 119
- 0.509 1 2 cbr 200 ------- 2 1.0 3.0 9 119
+ 0.51 1 2 cbr 200 ------- 2 1.0 3.0 10 120
- 0.51 1 2 cbr 200 ------- 2 1.0 3.0 10 120
+ 0.511 1 2 cbr 200 ------- 2 1.0 3.0 11 121
- 0.511 1 2 cbr 200 ------- 2 1.0 3.0 11 121
+ 0.512 1 2 cbr 200 ------- 2 1.0 3.0 12 122
- 0.512 1 2 cbr 200 ------- 2 1.0 3.0 12 122
+ 0.5125 0 2 cbr 210 ------- 1 0.0 3.0 110 123
- 0.5125 0 2 cbr 210 ------- 1 0.0 3.0 110 123
r 0.512668 0 2 cbr 210 ------- 1 0.0 3.0 30 30
+ 0.512668 2 3 cbr 210 ------- 1 0.0 3.0 30 30
- 0.512668 2 3 cbr 210 ------- 1 0.0 3.0 30 30
+ 0.513 1 2 cbr 200 ------- 2 1.0 3.0 13 124
- 0.513 1 2 cbr 200 ------- 2 1.0 3.0 13 124
+ 0.514 1 2 cbr 200 ------- 2 1.0 3.0 14 125
- 0.514 1 2 cbr 200 ------- 2 1.0 3.0 14 125
+ 0.515 1 2 cbr 200 ------- 2 1.0 3.0 15 126
- 0.515 1 2 cbr 200 ------- 2 1.0 3.0 15 126
+ 0.516 1 2 cbr 200 ------- 2 1.0 3.0 16 127
- 0.516 1 2 cbr 200 ------- 2 1.0 3.0 16 127
+ 0.51625 0 2 cbr 210 ------- 1 0.0 3.0 111 128
- 0.51625 0 2 cbr 210 ------- 1 0.0 3.0 111 128
r 0.516418 0 2 cbr 210 ------- 1 0.0 3.0 31 31
+ 0.516418 2 3 cbr 210 ------- 1 0.0 3.0 31 31
- 0.516418 2 3 cbr 210 ------- 1 0.0 3.0 31 31
+ 0.517 1 2 cbr 200 ------- 2 1.0 3.0 17 129
- 0.517 1 2 cbr 200 ------- 2 1.0 3.0 17 129
+ 0.518 1 2 cbr 200 ------- 2 1.0 3.0 18 130
- 0.518 1 2 cbr 200 ------- 2 1.0 3.0 18 130
+ 0.519 1 2 cbr 200 ------- 2 1.0 3.0 19 131
- 0.519 1 2 cbr 200 ------- 2 1.0 3.0 19 131
+ 0.52 0 2 cbr 210 ------- 1 0.0 3.0 112 132
- 0.52 0 2 cbr 210 ------- 1 0.0 3.0 112 132
+ 0.52 1 2 cbr 200 ------- 2 1.0 3.0 20 133
- 0.52 1 2 cbr 200 ------- 2 1.0 3.0 20 133
r 0.520168 0 2 cbr 210 ------- 1 0.0 3.0 32 32
+ 0.520168 2 3 cbr 210 ------- 1 0.0 3.0 32 32
- 0.520168 2 3 cbr 210 ------- 1 0.0 3.0 32 32
+ 0.521 1 2 cbr 200 ------- 2 1.0 3.0 21 134
- 0.521 1 2 cbr 200 ------- 2 1.0 3.0 21 134
+ 0.522 1 2 cbr 200 ------- 2 1.0 3.0 22 135
- 0.522 1 2 cbr 200 ------- 2 1.0 3.0 22 135
+ 0.523 1 2 cbr 200 ------- 2 1.0 3.0 23 136
- 0.523 1 2 cbr 200 ------- 2 1.0 3.0 23 136
+ 0.52375 0 2 cbr 210 ------- 1 0.0 3.0 113 137
- 0.52375 0 2 cbr 210 ------- 1 0.0 3.0 113 137
r 0.523918 0 2 cbr 210 ------- 1 0.0 3.0 33 33
+ 0.523918 2 3 cbr 210 ------- 1 0.0 3.0 33 33
- 0.523918 2 3 cbr 210 ------- 1 0.0 3.0 33 33
+ 0.524 1 2 cbr 200 ------- 2 1.0 3.0 24 138
- 0.524 1 2 cbr 200 ------- 2 1.0 3.0 24 138
+ 0.525 1 2 cbr 200 ------- 2 1.0 3.0 25 139
- 0.525 1 2 cbr 200 ------- 2 1.0 3.0 25 139
+ 0.526 1 2 cbr 200 ------- 2 1.0 3.0 26 140
- 0.526 1 2 cbr 200 ------- 2 1.0 3.0 26 140
+ 0.527 1 2 cbr 200 ------- 2 1.0 3.0 27 141
- 0.527 1 2 cbr 200 ------- 2 1.0 3.0 27 141
+ 0.5275 0 2 cbr 210 ------- 1 0.0 3.0 114 142
- 0.5275 0 2 cbr 210 ------- 1 0.0 3.0 114 142
r 0.527668 0 2 cbr 210 ------- 1 0.0 3.0 34 34
+ 0.527668 2 3 cbr 210 ------- 1 0.0 3.0 34 34
- 0.527668 2 3 cbr 210 ------- 1 0.0 3.0 34 34
+ 0.528 1 2 cbr 200 ------- 2 1.0 3.0 28 143
- 0.528 1 2 cbr 200 ------- 2 1.0 3.0 28 143
+ 0.529 1 2 cbr 200 ------- 2 1.0 3.0 29 144
- 0.529 1 2 cbr 200 ------- 2 1.0 3.0 29 144
+ 0.53 1 2 cbr 200 ------- 2 1.0 3.0 30 145
- 0.53 1 2 cbr 200 ------- 2 1.0 3.0 30 145
+ 0.531 1 2 cbr 200 ------- 2 1.0 3.0 31 146
- 0.531 1 2 cbr 200 ------- 2 1.0 3.0 31 146
+ 0.53125 0 2 cbr 210 ------- 1 0.0 3.0 115 147
- 0.53125 0 2 cbr 210 ------- 1 0.0 3.0 115 147
r 0.531418 0 2 cbr 210 ------- 1 0.0 3.0 35 35
+ 0.531418 2 3 cbr 210 ------- 1 0.0 3.0 35 35
- 0.531418 2 3 cbr 210 ------- 1 0.0 3.0 35 35
+ 0.532 1 2 cbr 200 ------- 2 1.0 3.0 32 148
- 0.532 1 2 cbr 200 ------- 2 1.0 3.0 32 148
+ 0.533 1 2 cbr 200 ------- 2 1.0 3.0 33 149
- 0.533 1 2 cbr 200 ------- 2 1.0 3.0 33 149
+ 0.534 1 2 cbr 200 ------- 2 1.0 3.0 34 150
- 0.534 1 2 cbr 200 ------- 2 1.0 3.0 34 150
+ 0.535 0 2 cbr 210 ------- 1 0.0 3.0 116 151
- 0.535 0 2 cbr 210 ------- 1 0.0 3.0 116 151
+ 0.535 1 2 cbr 200 ------- 2 1.0 3.0 35 152
- 0.535 1 2 cbr 200 ------- 2 1.0 3.0 35 152
r 0.535168 0 2 cbr 210 ------- 1 0.0 3.0 36 36
+ 0.535168 2 3 cbr 210 ------- 1 0.0 3.0 36 36
- 0.535168 2 3 cbr 210 ------- 1 0.0 3.0 36 36
+ 0.536 1 2 cbr 200 ------- 2 1.0 3.0 36 153
- 0.536 1 2 cbr 200 ------- 2 1.0 3.0 36 153
+ 0.537 1 2 cbr 200 ------- 2 1.0 3.0 37 154
- 0.537 1 2 cbr 200 ------- 2 1.0 3.0 37 154
+ 0.538 1 2 cbr 200 ------- 2 1.0 3.0 38 155
- 0.538 1 2 cbr 200 ------- 2 1.0 3.0 38 155
+ 0.53875 0 2 cbr 210 ------- 1 0.0 3.0 117 156
- 0.53875 0 2 cbr 210 ------- 1 0.0 3.0 117 156
r 0.538918 0 2 cbr 210 ------- 1 0.0 3.0 37 37
+ 0.538918 2 3 cbr 210 ------- 1 0.0 3.0 37 37
- 0.538918 2 3 cbr 210 ------- 1 0.0 3.0 37 37
+ 0.539 1 2 cbr 200 ------- 2 1.0 3.0 39 157
- 0.539 1 2 cbr 200 ------- 2 1.0 3.0 39 157
+ 0.54 1 2 cbr 200 ------- 2 1.0 3.0 40 158
- 0.54 1 2 cbr 200 ------- 2 1.0 3.0 40 158
+ 0.541 1 2 cbr 200 ------- 2 1.0 3.0 41 159
- 0.541 1 2 cbr 200 ------- 2 1.0 3.0 41 159
+ 0.542 1 2 cbr 200 ------- 2 1.0 3.0 42 160
- 0.542 1 2 cbr 200 ------- 2 1.0 3.0 42 160
+ 0.5425 0 2 cbr 210 ------- 1 0.0 3.0 118 161
- 0.5425 0 2 cbr 210 ------- 1 0.0 3.0 118 161
r 0.542668 0 2 cbr 210 ------- 1 0.0 3.0 38 38
+ 0.542668 2 3 cbr 210 ------- 1 0.0 3.0 38 38
- 0.542668 2 3 cbr 210 ------- 1 0.0 3.0 38 38
+ 0.543 1 2 cbr 200 ------- 2 1.0 3.0 43 162
- 0.543 1 2 cbr 200 ------- 2 1.0 3.0 43 162
+ 0.544 1 2 cbr 200 ------- 2 1.0 3.0 44 163
- 0.544 1 2 cbr 200 ------- 2 1.0 3.0 44 163
+ 0.545 1 2 cbr 200 ------- 2 1.0 3.0 45 164
- 0.545 1 2 cbr 200 ------- 2 1.0 3.0 45 164
+ 0.546 1 2 cbr 200 ------- 2 1.0 3.0 46 165
- 0.546 1 2 cbr 200 ------- 2 1.0 3.0 46 165
+ 0.54625 0 2 cbr 210 ------- 1 0.0 3.0 119 166
- 0.54625 0 2 cbr 210 ------- 1 0.0 3.0 119 166
r 0.546418 0 2 cbr 210 ------- 1 0.0 3.0 39 39
+ 0.546418 2 3 cbr 210 ------- 1 0.0 3.0 39 39
- 0.546418 2 3 cbr 210 ------- 1 0.0 3.0 39 39
+ 0.547 1 2 cbr 200 ------- 2 1.0 3.0 47 167
- 0.547 1 2 cbr 200 ------- 2 1.0 3.0 47 167
+ 0.548 1 2 cbr 200 ------- 2 1.0 3.0 48 168
- 0.548 1 2 cbr 200 ------- 2 1.0 3.0 48 168
+ 0.549 1 2 cbr 200 ------- 2 1.0 3.0 49 169
- 0.549 1 2 cbr 200 ------- 2 1.0 3.0 49 169
+ 0.55 0 2 cbr 210 ------- 1 0.0 3.0 120 170
- 0.55 0 2 cbr 210 ------- 1 0.0 3.0 120 170
+ 0.55 1 2 cbr 200 ------- 2 1.0 3.0 50 171
- 0.55 1 2 cbr 200 ------- 2 1.0 3.0 50 171
r 0.550168 0 2 cbr 210 ------- 1 0.0 3.0 40 40
+ 0.550168 2 3 cbr 210 ------- 1 0.0 3.0 40 40
- 0.550168 2 3 cbr 210 ------- 1 0.0 3.0 40 40
+ 0.551 1 2 cbr 200 ------- 2 1.0 3.0 51 172
- 0.551 1 2 cbr 200 ------- 2 1.0 3.0 51 172
+ 0.552 1 2 cbr 200 ------- 2 1.0 3.0 52 173
- 0.552 1 2 cbr 200 ------- 2 1.0 3.0 52 173
+ 0.553 1 2 cbr 200 ------- 2 1.0 3.0 53 174
- 0.553 1 2 cbr 200 ------- 2 1.0 3.0 53 174
+ 0.55375 0 2 cbr 210 ------- 1 0.0 3.0 121 175
- 0.55375 0 2 cbr 210 ------- 1 0.0 3.0 121 175
r 0.553918 0 2 cbr 210 ------- 1 0.0 3.0 41 41
+ 0.553918 2 3 cbr 210 ------- 1 0.0 3.0 41 41
- 0.553918 2 3 cbr 210 ------- 1 0.0 3.0 41 41
+ 0.554 1 2 cbr 200 ------- 2 1.0 3.0 54 176
- 0.554 1 2 cbr 200 ------- 2 1.0 3.0 54 176
+ 0.555 1 2 cbr 200 ------- 2 1.0 3.0 55 177
- 0.555 1 2 cbr 200 ------- 2 1.0 3.0 55 177
+ 0.556 1 2 cbr 200 ------- 2 1.0 3.0 56 178
- 0.556 1 2 cbr 200 ------- 2 1.0 3.0 56 178
+ 0.557 1 2 cbr 200 ------- 2 1.0 3.0 57 179
- 0.557 1 2 cbr 200 ------- 2 1.0 3.0 57 179
+ 0.5575 0 2 cbr 210 ------- 1 0.0 3.0 122 180
- 0.5575 0 2 cbr 210 ------- 1 0.0 3.0 122 180
r 0.557668 0 2 cbr 210 ------- 1 0.0 3.0 42 42
+ 0.557668 2 3 cbr 210 ------- 1 0.0 3.0 42 42
- 0.557668 2 3 cbr 210 ------- 1 0.0 3.0 42 42
+ 0.558 1 2 cbr 200 ------- 2 1.0 3.0 58 181
- 0.558 1 2 cbr 200 ------- 2 1.0 3.0 58 181
+ 0.559 1 2 cbr 200 ------- 2 1.0 3.0 59 182
- 0.559 1 2 cbr 200 ------- 2 1.0 3.0 59 182
+ 0.56 1 2 cbr 200 ------- 2 1.0 3.0 60 183
- 0.56 1 2 cbr 200 ------- 2 1.0 3.0 60 183
+ 0.561 1 2 cbr 200 ------- 2 1.0 3.0 61 184
- 0.561 1 2 cbr 200 ------- 2 1.0 3.0 61 184
+ 0.56125 0 2 cbr 210 ------- 1 0.0 3.0 123 185
- 0.56125 0 2 cbr 210 ------- 1 0.0 3.0 123 185
r 0.561418 0 2 cbr 210 ------- 1 0.0 3.0 43 43
+ 0.561418 2 3 cbr 210 ------- 1 0.0 3.0 43 43
- 0.561418 2 3 cbr 210 ------- 1 0.0 3.0 43 43
+ 0.562 1 2 cbr 200 ------- 2 1.0 3.0 62 186
- 0.562 1 2 cbr 200 ------- 2 1.0 3.0 62 186
+ 0.563 1 2 cbr 200 ------- 2 1.0 3.0 63 187
- 0.563 1 2 cbr 200 ------- 2 1.0 3.0 63 187
+ 0.564 1 2 cbr 200 ------- 2 1.0 3.0 64 188
- 0.564 1 2 cbr 200 ------- 2 1.0 3.0 64 188
+ 0.565 0 2 cbr 210 ------- 1 0.0 3.0 124 189
- 0.565 0 2 cbr 210 ------- 1 0.0 3.0 124 189
+ 0.565 1 2 cbr 200 ------- 2 1.0 3.0 65 190
- 0.565 1 2 cbr 200 ------- 2 1.0 3.0 65 190
r 0.565168 0 2 cbr 210 ------- 1 0.0 3.0 44 44
+ 0.565168 2 3 cbr 210 ------- 1 0.0 3.0 44 44
- 0.565168 2 3 cbr 210 ------- 1 0.0 3.0 44 44
+ 0.566 1 2 cbr 200 ------- 2 1.0 3.0 66 191
- 0.566 1 2 cbr 200 ------- 2 1.0 3.0 66 191
+ 0.567 1 2 cbr 200 ------- 2 1.0 3.0 67 192
- 0.567 1 2 cbr 200 ------- 2 1.0 3.0 67 192
+ 0.568 1 2 cbr 200 ------- 2 1.0 3.0 68 193
- 0.568 1 2 cbr 200 ------- 2 1.0 3.0 68 193
+ 0.56875 0 2 cbr 210 ------- 1 0.0 3.0 125 194
- 0.56875 0 2 cbr 210 ------- 1 0.0 3.0 125 194
r 0.568918 0 2 cbr 210 ------- 1 0.0 3.0 45 45
+ 0.568918 2 3 cbr 210 ------- 1 0.0 3.0 45 45
- 0.568918 2 3 cbr 210 ------- 1 0.0 3.0 45 45
+ 0.569 1 2 cbr 200 ------- 2 1.0 3.0 69 195
- 0.569 1 2 cbr 200 ------- 2 1.0 3.0 69 195
+ 0.57 1 2 cbr 200 ------- 2 1.0 3.0 70 196
- 0.57 1 2 cbr 200 ------- 2 1.0 3.0 70 196
+ 0.571 1 2 cbr 200 ------- 2 1.0 3.0 71 197
- 0.571 1 2 cbr 200 ------- 2 1.0 3.0 71 197
+ 0.572 1 2 cbr 200 ------- 2 1.0 3.0 72 198
- 0.572 1 2 cbr 200 ------- 2 1.0 3.0 72 198
+ 0.5725 0 2 cbr 210 ------- 1 0.0 3.0 126 199
- 0.5725 0 2 cbr 210 ------- 1 0.0 3.0 126 199
r 0.572668 0 2 cbr 210 ------- 1 0.0 3.0 46 46
+ 0.572668 2 3 cbr 210 ------- 1 0.0 3.0 46 46
- 0.572668 2 3 cbr 210 ------- 1 0.0 3.0 46 46
+ 0.573 1 2 cbr 200 ------- 2 1.0 3.0 73 200
- 0.573 1 2 cbr 200 ------- 2 1.0 3.0 73 200
+ 0.574 1 2 cbr 200 ------- 2 1.0 3.0 74 201
- 0.574 1 2 cbr 200 ------- 2 1.0 3.0 74 201
+ 0.575 1 2 cbr 200 ------- 2 1.0 3.0 75 202
- 0.575 1 2 cbr 200 ------- 2 1.0 3.0 75 202
+ 0.576 1 2 cbr 200 ------- 2 1.0 3.0 76 203
- 0.576 1 2 cbr 200 ------- 2 1.0 3.0 76 203
+ 0.57625 0 2 cbr 210 ------- 1 0.0 3.0 127 204
- 0.57625 0 2 cbr 210 ------- 1 0.0 3.0 127 204
r 0.576418 0 2 cbr 210 ------- 1 0.0 3.0 47 47
+ 0.576418 2 3 cbr 210 ------- 1 0.0 3.0 47 47
- 0.576418 2 3 cbr 210 ------- 1 0.0 3.0 47 47
+ 0.577 1 2 cbr 200 ------- 2 1.0 3.0 77 205
- 0.577 1 2 cbr 200 ------- 2 1.0 3.0 77 205
+ 0.578 1 2 cbr 200 ------- 2 1.0 3.0 78 206
- 0.578 1 2 cbr 200 ------- 2 1.0 3.0 78 206
+ 0.579 1 2 cbr 200 ------- 2 1.0 3.0 79 207
- 0.579 1 2 cbr 200 ------- 2 1.0 3.0 79 207
+ 0.58 0 2 cbr 210 ------- 1 0.0 3.0 128 208
- 0.58 0 2 cbr 210 ------- 1 0.0 3.0 128 208
+ 0.58 1 2 cbr 200 ------- 2 1.0 3.0 80 209
- 0.58 1 2 cbr 200 ------- 2 1.0 3.0 80 209
r 0.580168 0 2 cbr 210 ------- 1 0.0 3.0 48 48
+ 0.580168 2 3 cbr 210 ------- 1 0.0 3.0 48 48
- 0.580168 2 3 cbr 210 ------- 1 0.0 3.0 48 48
+ 0.581 1 2 cbr 200 ------- 2 1.0 3.0 81 210
- 0.581 1 2 cbr 200 ------- 2 1.0 3.0 81 210
+ 0.582 1 2 cbr 200 ------- 2 1.0 3.0 82 211
- 0.582 1 2 cbr 200 ------- 2 1.0 3.0 82 211
+ 0.583 1 2 cbr 200 ------- 2 1.0 3.0 83 212
- 0.583 1 2 cbr 200 ------- 2 1.0 3.0 83 212
+ 0.58375 0 2 cbr 210 ------- 1 0.0 3.0 129 213
- 0.58375 0 2 cbr 210 ------- 1 0.0 3.0 129 213
r 0.583918 0 2 cbr 210 ------- 1 0.0 3.0 49 49
+ 0.583918 2 3 cbr 210 ------- 1 0.0 3.0 49 49
- 0.583918 2 3 cbr 210 ------- 1 0.0 3.0 49 49
+ 0.584 1 2 cbr 200 ------- 2 1.0 3.0 84 214
- 0.584 1 2 cbr 200 ------- 2 1.0 3.0 84 214
+ 0.585 1 2 cbr 200 ------- 2 1.0 3.0 85 215
- 0.585 1 2 cbr 200 ------- 2 1.0 3.0 85 215
+ 0.586 1 2 cbr 200 ------- 2 1.0 3.0 86 216
- 0.586 1 2 cbr 200 ------- 2 1.0 3.0 86 216
+ 0.587 1 2 cbr 200 ------- 2 1.0 3.0 87 217
- 0.587 1 2 cbr 200 ------- 2 1.0 3.0 87 217
+ 0.5875 0 2 cbr 210 ------- 1 0.0 3.0 130 218
- 0.5875 0 2 cbr 210 ------- 1 0.0 3.0 130 218
r 0.587668 0 2 cbr 210 ------- 1 0.0 3.0 50 50
+ 0.587668 2 3 cbr 210 ------- 1 0.0 3.0 50 50
- 0.587668 2 3 cbr 210 ------- 1 0.0 3.0 50 50
+ 0.588 1 2 cbr 200 ------- 2 1.0 3.0 88 219
- 0.588 1 2 cbr 200 ------- 2 1.0 3.0 88 219
+ 0.589 1 2 cbr 200 ------- 2 1.0 3.0 89 220
- 0.589 1 2 cbr 200 ------- 2 1.0 3.0 89 220
+ 0.59 1 2 cbr 200 ------- 2 1.0 3.0 90 221
- 0.59 1 2 cbr 200 ------- 2 1.0 3.0 90 221
+ 0.591 1 2 cbr 200 ------- 2 1.0 3.0 91 222
- 0.591 1 2 cbr 200 ------- 2 1.0 3.0 91 222
+ 0.59125 0 2 cbr 210 ------- 1 0.0 3.0 131 223
- 0.59125 0 2 cbr 210 ------- 1 0.0 3.0 131 223
r 0.591418 0 2 cbr 210 ------- 1 0.0 3.0 51 51
+ 0.591418 2 3 cbr 210 ------- 1 0.0 3.0 51 51
- 0.591418 2 3 cbr 210 ------- 1 0.0 3.0 51 51
+ 0.592 1 2 cbr 200 ------- 2 1.0 3.0 92 224
- 0.592 1 2 cbr 200 ------- 2 1.0 3.0 92 224
+ 0.593 1 2 cbr 200 ------- 2 1.0 3.0 93 225
- 0.593 1 2 cbr 200 ------- 2 1.0 3.0 93 225
+ 0.594 1 2 cbr 200 ------- 2 1.0 3.0 94 226
- 0.594 1 2 cbr 200 ------- 2 1.0 3.0 94 226
+ 0.595 0 2 cbr 210 ------- 1 0.0 3.0 132 227
- 0.595 0 2 cbr 210 ------- 1 0.0 3.0 132 227
+ 0.595 1 2 cbr 200 ------- 2 1.0 3.0 95 228
- 0.595 1 2 cbr 200 ------- 2 1.0 3.0 95 228
r 0.595168 0 2 cbr 210 ------- 1 0.0 3.0 52 52
+ 0.595168 2 3 cbr 210 ------- 1 0.0 3.0 52 52
- 0.595168 2 3 cbr 210 ------- 1 0.0 3.0 52 52
+ 0.596 1 2 cbr 200 ------- 2 1.0 3.0 96 229
- 0.596 1 2 cbr 200 ------- 2 1.0 3.0 96 229
+ 0.597 1 2 cbr 200 ------- 2 1.0 3.0 97 230
- 0.597 1 2 cbr 200 ------- 2 1.0 3.0 97 230
+ 0.598 1 2 cbr 200 ------- 2 1.0 3.0 98 231
- 0.598 1 2 cbr 200 ------- 2 1.0 3.0 98 231
+ 0.59875 0 2 cbr 210 ------- 1 0.0 3.0 133 232
- 0.59875 0 2 cbr 210 ------- 1 0.0 3.0 133 232
r 0.598918 0 2 cbr 210 ------- 1 0.0 3.0 53 53
+ 0.598918 2 3 cbr 210 ------- 1 0.0 3.0 53 53
- 0.598918 2 3 cbr 210 ------- 1 0.0 3.0 53 53
+ 0.599 1 2 cbr 200 ------- 2 1.0 3.0 99 233
- 0.599 1 2 cbr 200 ------- 2 1.0 3.0 99 233
+ 0.6 1 2 cbr 200 ------- 2 1.0 3.0 100 234
- 0.6 1 2 cbr 200 ------- 2 1.0 3.0 100 234
+ 0.601 1 2 cbr 200 ------- 2 1.0 3.0 101 235
- 0.601 1 2 cbr 200 ------- 2 1.0 3.0 101 235
+ 0.602 1 2 cbr 200 ------- 2 1.0 3.0 102 236
- 0.602 1 2 cbr 200 ------- 2 1.0 3.0 102 236
+ 0.6025 0 2 cbr 210 ------- 1 0.0 3.0 134 237
- 0.6025 0 2 cbr 210 ------- 1 0.0 3.0 134 237
r 0.602668 0 2 cbr 210 ------- 1 0.0 3.0 54 54
+ 0.602668 2 3 cbr 210 ------- 1 0.0 3.0 54 54
- 0.602668 2 3 cbr 210 ------- 1 0.0 3.0 54 54
+ 0.603 1 2 cbr 200 ------- 2 1.0 3.0 103 238
- 0.603 1 2 cbr 200 ------- 2 1.0 3.0 103 238
+ 0.604 1 2 cbr 200 ------- 2 1.0 3.0 104 239
- 0.604 1 2 cbr 200 ------- 2 1.0 3.0 104 239
+ 0.605 1 2 cbr 200 ------- 2 1.0 3.0 105 240
- 0.605 1 2 cbr 200 ------- 2 1.0 3.0 105 240
+ 0.606 1 2 cbr 200 ------- 2 1.0 3.0 106 241
- 0.606 1 2 cbr 200 ------- 2 1.0 3.0 106 241
+ 0.60625 0 2 cbr 210 ------- 1 0.0 3.0 135 242
- 0.60625 0 2 cbr 210 ------- 1 0.0 3.0 135 242
r 0.606418 0 2 cbr 210 ------- 1 0.0 3.0 55 55
+ 0.606418 2 3 cbr 210 ------- 1 0.0 3.0 55 55
- 0.606418 2 3 cbr 210 ------- 1 0.0 3.0 55 55
+ 0.607 1 2 cbr 200 ------- 2 1.0 3.0 107 243
- 0.607 1 2 cbr 200 ------- 2 1.0 3.0 107 243
+ 0.608 1 2 cbr 200 ------- 2 1.0 3.0 108 244
- 0.608 1 2 cbr 200 ------- 2 1.0 3.0 108 244