v 0.01 eval {set sim_annotation {Network Deployment}}
M 0.10000 0 (548.80, 491.11, 0.00), (119.85, 191.57), 40.00
M 0.10000 1 (655.50, 770.32, 0.00), (682.65, 200.93), 40.00
M 0.10000 2 (510.89, 449.85, 0.00), (317.93, 341.53), 40.00
M 0.10000 3 (753.98, 113.56, 0.00), (179.35, 287.12), 40.00
M 0.10000 4 (666.22, 181.98, 0.00), (115.14, 59.29), 40.00
M 0.10000 5 (228.29, 651.12, 0.00), (595.72, 201.00), 40.00
M 0.10000 6 (234.97, 107.88, 0.00), (834.30, 3.93), 40.00
M 0.10000 7 (349.90, 594.94, 0.00), (466.13, 224.49), 40.00
M 0.10000 8 (959.16, 501.14, 0.00), (300.15, 508.34), 40.00
M 0.10000 9 (274.55, 225.30, 0.00), (537.16, 775.21), 40.00
M 0.10000 10 (181.75, 494.01, 0.00), (192.22, 550.55), 40.00
M 0.10000 11 (551.21, 146.66, 0.00), (377.15, 577.70), 40.00
M 0.10000 12 (114.83, 749.99, 0.00), (666.93, 13.13), 40.00
M 0.10000 13 (319.99, 79.50, 0.00), (782.41, 728.94), 40.00
M 0.10000 14 (203.76, 490.68, 0.00), (56.54, 175.57), 40.00
M 0.10000 15 (516.08, 653.57, 0.00), (542.90, 377.98), 40.00
M 0.10000 16 (772.58, 624.36, 0.00), (991.96, 732.96), 40.00
M 0.10000 17 (91.61, 588.01, 0.00), (595.94, 729.97), 40.00
M 0.10000 18 (280.66, 15.47, 0.00), (737.74, 157.64), 40.00
M 0.10000 19 (905.85, 497.14, 0.00), (832.45, 740.28), 40.00
M 0.10000 20 (246.94, 191.36, 0.00), (283.35, 236.05), 40.00
M 0.10000 21 (285.74, 320.82, 0.00), (167.17, 435.88), 40.00
M 0.10000 22 (958.68, 457.80, 0.00), (267.72, 395.24), 40.00
M 0.10000 23 (816.00, 444.25, 0.00), (433.67, 507.91), 40.00
M 0.10000 24 (120.43, 99.30, 0.00), (638.52, 466.50), 40.00
s 1.000000000 _4_ AGT  --- 0 cbr 1000 [0 0 0 0] [energy 100.000000 ei 0.000 es 0.000 et 0.000 er 0.000] ------- [4:0 20:0 32 0] [0] 0 0
r 1.000000000 _4_ RTR  --- 0 cbr 1000 [0 0 0 0] [energy 100.000000 ei 0.000 es 0.000 et 0.000 er 0.000] ------- [4:0 20:0 32 0] [0] 0 0
s 1.000000000 _4_ RTR  --- 0 AODV 48 [0 0 0 0] [energy 100.000000 ei 0.000 es 0.000 et 0.000 er 0.000] ------- [4:255 -1:255 30 0] [0x2 1 1 [20 0] [4 4]] (REQUEST)
N -t 1.000535 -n 11 -e 99.999746
N -t 1.000535 -n 3 -e 99.999746
N -t 1.000536 -n 13 -e 99.999746
N -t 1.000536 -n 2 -e 99.999746
N -t 1.000536 -n 23 -e 99.999746
N -t 1.000536 -n 0 -e 99.999746
N -t 1.000536 -n 18 -e 99.999746
N -t 1.000536 -n 9 -e 99.999746
N -t 1.000536 -n 20 -e 99.999746
N -t 1.000536 -n 6 -e 99.999746
N -t 1.000536 -n 22 -e 99.999746
N -t 1.000536 -n 21 -e 99.999746
N -t 1.000536 -n 8 -e 99.999746
N -t 1.000536 -n 19 -e 99.999746
N -t 1.000537 -n 15 -e 99.999746
N -t 1.000537 -n 7 -e 99.999746
N -t 1.000537 -n 24 -e 99.999746
N -t 1.000537 -n 16 -e 99.999746
N -t 1.000537 -n 14 -e 99.999746
r 1.001408312 _11_ RTR  --- 0 AODV 48 [0 ffffffff 4 800] [energy 99.999746 ei 0.000 es 0.000 et 0.000 er 0.000] ------- [4:255 -1:255 30 0] [0x2 1 1 [20 0] [4 4]] (REQUEST)
r 1.001408339 _3_ RTR  --- 0 AODV 48 [0 ffffffff 4 800] [energy 99.999746 ei 0.000 es 0.000 et 0.000 er 0.000] ------- [4:255 -1:255 30 0] [0x2 1 1 [20 0] [4 4]] (REQUEST)
s 1.001550358 _11_ RTR  --- 0 AODV 48 [0 ffffffff 4 800] [energy 99.999746 ei 0.000 es 0.000 et 0.000 er 0.000] ------- [11:255 -1:255 29 0] [0x2 2 1 [20 0] [4 4]] (REQUEST)
N -t 1.001946 -n 4 -e 99.999237
N -t 1.001946 -n 3 -e 99.999491
N -t 1.001946 -n 13 -e 99.999491
N -t 1.001946 -n 2 -e 99.999491
N -t 1.001946 -n 9 -e 99.999491
N -t 1.001946 -n 18 -e 99.999491
N -t 1.001946 -n 20 -e 99.999491
N -t 1.001946 -n 6 -e 99.999491
N -t 1.001946 -n 0 -e 99.999491
N -t 1.001946 -n 21 -e 99.999491
N -t 1.001947 -n 23 -e 99.999491
N -t 1.001947 -n 24 -e 99.999491
N -t 1.001947 -n 7 -e 99.999491
N -t 1.001947 -n 15 -e 99.999491
N -t 1.001947 -n 14 -e 99.999491
N -t 1.001947 -n 22 -e 99.999491
N -t 1.001947 -n 10 -e 99.999746
N -t 1.001947 -n 19 -e 99.999491
N -t 1.001947 -n 8 -e 99.999491
N -t 1.001947 -n 5 -e 99.999746
N -t 1.001947 -n 16 -e 99.999491
s 1.002289566 _3_ RTR  --- 0 AODV 48 [0 ffffffff 4 800] [energy 99.999491 ei 0.000 es 0.000 et 0.000 er 0.001] ------- [3:255 -1:255 29 0] [0x2 2 1 [20 0] [4 4]] (REQUEST)
r 1.002818670 _4_ RTR  --- 0 AODV 48 [0 ffffffff b 800] [energy 99.999237 ei 0.000 es 0.000 et 0.001 er 0.000] ------- [11:255 -1:255 29 0] [0x2 2 1 [20 0] [4 4]] (REQUEST)
r 1.002818992 _3_ RTR  --- 0 AODV 48 [0 ffffffff b 800] [energy 99.999491 ei 0.000 es 0.000 et 0.000 er 0.001] ------- [11:255 -1:255 29 0] [0x2 2 1 [20 0] [4 4]] (REQUEST)
r 1.002819056 _13_ RTR  --- 0 AODV 48 [0 ffffffff b 800] [energy 99.999491 ei 0.000 es 0.000 et 0.000 er 0.001] ------- [11:255 -1:255 29 0] [0x2 2 1 [20 0] [4 4]] (REQUEST)
N -t 1.002844 -n 4 -e 99.998982
N -t 1.002845 -n 11 -e 99.998982
N -t 1.002845 -n 23 -e 99.999237
N -t 1.002845 -n 13 -e 99.999237
N -t 1.002845 -n 22 -e 99.999237
N -t 1.002845 -n 2 -e 99.999237
N -t 1.002845 -n 0 -e 99.999237
N -t 1.002845 -n 18 -e 99.999237
N -t 1.002845 -n 8 -e 99.999237
N -t 1.002845 -n 19 -e 99.999237
N -t 1.002845 -n 6 -e 99.999237
N -t 1.002845 -n 9 -e 99.999237
N -t 1.002846 -n 20 -e 99.999237
N -t 1.002846 -n 21 -e 99.999237
N -t 1.002846 -n 16 -e 99.999237
N -t 1.002846 -n 15 -e 99.999237
r 1.003717331 _4_ RTR  --- 0 AODV 48 [0 ffffffff 3 800] [energy 99.998982 ei 0.000 es 0.000 et 0.001 er 0.001] ------- [3:255 -1:255 29 0] [0x2 2 1 [20 0] [4 4]] (REQUEST)
r 1.003717626 _11_ RTR  --- 0 AODV 48 [0 ffffffff 3 800] [energy 99.998982 ei 0.000 es 0.000 et 0.001 er 0.001] ------- [3:255 -1:255 29 0] [0x2 2 1 [20 0] [4 4]] (REQUEST)
s 1.010983816 _13_ RTR  --- 0 AODV 48 [0 ffffffff b 800] [energy 99.999237 ei 0.000 es 0.000 et 0.000 er 0.001] ------- [13:255 -1:255 28 0] [0x2 3 1 [20 0] [4 4]] (REQUEST)
N -t 1.011419 -n 6 -e 99.998982
N -t 1.011419 -n 18 -e 99.998982
N -t 1.011419 -n 20 -e 99.998982
N -t 1.011419 -n 9 -e 99.998982
N -t 1.011419 -n 24 -e 99.999237
N -t 1.011420 -n 11 -e 99.998728
N -t 1.011420 -n 21 -e 99.998982
N -t 1.011420 -n 4 -e 99.998728
N -t 1.011420 -n 2 -e 99.998982
N -t 1.011420 -n 3 -e 99.998728
N -t 1.011420 -n 14 -e 99.999237
N -t 1.011420 -n 0 -e 99.998982
N -t 1.011420 -n 10 -e 99.999491
N -t 1.011420 -n 7 -e 99.999237
N -t 1.011421 -n 5 -e 99.999491
N -t 1.011421 -n 17 -e 99.999746
N -t 1.011421 -n 15 -e 99.998982
r 1.012292052 _6_ RTR  --- 0 AODV 48 [0 ffffffff d 800] [energy 99.998982 ei 0.000 es 0.000 et 0.000 er 0.001] ------- [13:255 -1:255 28 0] [0x2 3 1 [20 0] [4 4]] (REQUEST)
r 1.012292106 _18_ RTR  --- 0 AODV 48 [0 ffffffff d 800] [energy 99.998982 ei 0.000 es 0.000 et 0.000 er 0.001] ------- [13:255 -1:255 28 0] [0x2 3 1 [20 0] [4 4]] (REQUEST)
r 1.012292254 _20_ RTR  --- 0 AODV 48 [0 ffffffff d 800] [energy 99.998982 ei 0.000 es 0.000 et 0.000 er 0.001] ------- [13:255 -1:255 28 0] [0x2 3 1 [20 0] [4 4]] (REQUEST)
s 1.012292254 _20_ RTR  --- 0 AODV 44 [0 0 0 0] [energy 99.998982 ei 0.000 es 0.000 et 0.000 er 0.001] ------- [20:255 4:255 30 13] [0x4 1 [20 4] 10.000000] (REPLY)
r 1.012292341 _9_ RTR  --- 0 AODV 48 [0 ffffffff d 800] [energy 99.998982 ei 0.000 es 0.000 et 0.000 er 0.001] ------- [13:255 -1:255 28 0] [0x2 3 1 [20 0] [4 4]] (REQUEST)
r 1.012292454 _24_ RTR  --- 0 AODV 48 [0 ffffffff d 800] [energy 99.999237 ei 0.000 es 0.000 et 0.000 er 0.001] ------- [13:255 -1:255 28 0] [0x2 3 1 [20 0] [4 4]] (REQUEST)
r 1.012292513 _11_ RTR  --- 0 AODV 48 [0 ffffffff d 800] [energy 99.998728 ei 0.000 es 0.000 et 0.001 er 0.001] ------- [13:255 -1:255 28 0] [0x2 3 1 [20 0] [4 4]] (REQUEST)
N -t 1.012707 -n 9 -e 99.998776
N -t 1.012708 -n 6 -e 99.998776
N -t 1.012708 -n 21 -e 99.998776
N -t 1.012708 -n 13 -e 99.998522
N -t 1.012708 -n 24 -e 99.999030
N -t 1.012708 -n 18 -e 99.998776
N -t 1.012708 -n 14 -e 99.999030
N -t 1.012708 -n 11 -e 99.998522
N -t 1.012708 -n 2 -e 99.998776
N -t 1.012708 -n 10 -e 99.999285
N -t 1.012708 -n 7 -e 99.999030
N -t 1.012708 -n 0 -e 99.998776
N -t 1.012708 -n 4 -e 99.998522
N -t 1.012709 -n 5 -e 99.999285
N -t 1.012709 -n 17 -e 99.999539
N -t 1.012709 -n 3 -e 99.998522
N -t 1.012709 -n 15 -e 99.998776
N -t 1.012709 -n 12 -e 99.999794
s 1.012720287 _9_ RTR  --- 0 AODV 48 [0 ffffffff d 800] [energy 99.998776 ei 0.000 es 0.000 et 0.000 er 0.001] ------- [9:255 -1:255 27 0] [0x2 4 1 [20 0] [4 4]] (REQUEST)
N -t 1.013686 -n 20 -e 99.998315
N -t 1.013686 -n 21 -e 99.998522
N -t 1.013686 -n 13 -e 99.998267
N -t 1.013686 -n 6 -e 99.998522
N -t 1.013686 -n 24 -e 99.998776
N -t 1.013686 -n 14 -e 99.998776
N -t 1.013686 -n 18 -e 99.998522
N -t 1.013686 -n 2 -e 99.998522
N -t 1.013686 -n 11 -e 99.998267
N -t 1.013686 -n 10 -e 99.999030
N -t 1.013686 -n 7 -e 99.998776
N -t 1.013686 -n 0 -e 99.998522
N -t 1.013687 -n 4 -e 99.998267
N -t 1.013687 -n 5 -e 99.999030
N -t 1.013687 -n 17 -e 99.999285
N -t 1.013687 -n 15 -e 99.998522
N -t 1.013687 -n 3 -e 99.998267
N -t 1.013687 -n 12 -e 99.999539
N -t 1.013687 -n 23 -e 99.998982
s 1.013933560 _18_ RTR  --- 0 AODV 48 [0 ffffffff d 800] [energy 99.998522 ei 0.000 es 0.000 et 0.000 er 0.001] ------- [18:255 -1:255 27 0] [0x2 4 1 [20 0] [4 4]] (REQUEST)
r 1.014558545 _20_ RTR  --- 0 AODV 48 [0 ffffffff 9 800] [energy 99.998315 ei 0.000 es 0.000 et 0.000 er 0.001] ------- [9:255 -1:255 27 0] [0x2 4 1 [20 0] [4 4]] (REQUEST)
r 1.014558710 _21_ RTR  --- 0 AODV 48 [0 ffffffff 9 800] [energy 99.998522 ei 0.000 es 0.000 et 0.000 er 0.001] ------- [9:255 -1:255 27 0] [0x2 4 1 [20 0] [4 4]] (REQUEST)
r 1.014558925 _13_ RTR  --- 0 AODV 48 [0 ffffffff 9 800] [energy 99.998267 ei 0.000 es 0.000 et 0.001 er 0.001] ------- [9:255 -1:255 27 0] [0x2 4 1 [20 0] [4 4]] (REQUEST)
r 1.014558926 _6_ RTR  --- 0 AODV 48 [0 ffffffff 9 800] [energy 99.998522 ei 0.000 es 0.000 et 0.000 er 0.001] ------- [9:255 -1:255 27 0] [0x2 4 1 [20 0] [4 4]] (REQUEST)
r 1.014559055 _24_ RTR  --- 0 AODV 48 [0 ffffffff 9 800] [energy 99.998776 ei 0.000 es 0.000 et 0.000 er 0.001] ------- [9:255 -1:255 27 0] [0x2 4 1 [20 0] [4 4]] (REQUEST)
r 1.014559146 _14_ RTR  --- 0 AODV 48 [0 ffffffff 9 800] [energy 99.998776 ei 0.000 es 0.000 et 0.000 er 0.001] ------- [9:255 -1:255 27 0] [0x2 4 1 [20 0] [4 4]] (REQUEST)
r 1.014559177 _18_ RTR  --- 0 AODV 48 [0 ffffffff 9 800] [energy 99.998522 ei 0.000 es 0.000 et 0.000 er 0.001] ------- [9:255 -1:255 27 0] [0x2 4 1 [20 0] [4 4]] (REQUEST)
N -t 1.014844 -n 6 -e 99.998416
N -t 1.014844 -n 18 -e 99.998416
N -t 1.014844 -n 20 -e 99.998210
N -t 1.014844 -n 9 -e 99.998162
N -t 1.014845 -n 24 -e 99.998670
N -t 1.014845 -n 11 -e 99.998162
N -t 1.014845 -n 21 -e 99.998416
N -t 1.014845 -n 4 -e 99.998162
N -t 1.014845 -n 2 -e 99.998416
N -t 1.014845 -n 3 -e 99.998162
N -t 1.014845 -n 14 -e 99.998670
N -t 1.014845 -n 0 -e 99.998416
N -t 1.014845 -n 10 -e 99.998925
N -t 1.014845 -n 7 -e 99.998670
N -t 1.014846 -n 5 -e 99.998925
N -t 1.014846 -n 17 -e 99.999179
N -t 1.014846 -n 15 -e 99.998416
N -t 1.015207 -n 9 -e 99.998070
N -t 1.015207 -n 6 -e 99.998325
N -t 1.015207 -n 21 -e 99.998325
N -t 1.015207 -n 13 -e 99.997965
N -t 1.015207 -n 24 -e 99.998579
N -t 1.015207 -n 18 -e 99.998325
N -t 1.015207 -n 14 -e 99.998579
N -t 1.015207 -n 11 -e 99.998070
N -t 1.015207 -n 2 -e 99.998325
N -t 1.015207 -n 10 -e 99.998834
N -t 1.015208 -n 7 -e 99.998579
N -t 1.015208 -n 0 -e 99.998325
N -t 1.015208 -n 4 -e 99.998070
N -t 1.015208 -n 5 -e 99.998834
N -t 1.015208 -n 17 -e 99.999088
N -t 1.015208 -n 3 -e 99.998070
N -t 1.015208 -n 15 -e 99.998325
N -t 1.015208 -n 12 -e 99.999448
N -t 1.015521 -n 6 -e 99.998118
N -t 1.015521 -n 18 -e 99.998118
N -t 1.015521 -n 20 -e 99.997821
N -t 1.015521 -n 9 -e 99.997864
N -t 1.015521 -n 24 -e 99.998373
N -t 1.015521 -n 11 -e 99.997864
N -t 1.015522 -n 21 -e 99.998118
N -t 1.015522 -n 4 -e 99.997864
N -t 1.015522 -n 2 -e 99.998118
N -t 1.015522 -n 3 -e 99.997864
N -t 1.015522 -n 14 -e 99.998373
N -t 1.015522 -n 0 -e 99.998118
N -t 1.015522 -n 10 -e 99.998627
N -t 1.015522 -n 7 -e 99.998373
N -t 1.015523 -n 5 -e 99.998627
N -t 1.015523 -n 17 -e 99.998882
N -t 1.015523 -n 15 -e 99.998118
N -t 1.016219 -n 9 -e 99.997773
N -t 1.016220 -n 6 -e 99.998027
N -t 1.016220 -n 21 -e 99.998027
N -t 1.016220 -n 13 -e 99.997461
N -t 1.016220 -n 24 -e 99.998282
N -t 1.016220 -n 18 -e 99.998027
N -t 1.016220 -n 14 -e 99.998282
N -t 1.016220 -n 11 -e 99.997773
N -t 1.016220 -n 2 -e 99.998027
N -t 1.016220 -n 10 -e 99.998536
N -t 1.016220 -n 7 -e 99.998282
N -t 1.016220 -n 0 -e 99.998027
N -t 1.016220 -n 4 -e 99.997773
N -t 1.016221 -n 5 -e 99.998536
N -t 1.016221 -n 17 -e 99.998790
N -t 1.016221 -n 3 -e 99.997773
N -t 1.016221 -n 15 -e 99.998027
N -t 1.016221 -n 12 -e 99.999357
N -t 1.016593 -n 9 -e 99.997667
N -t 1.016594 -n 6 -e 99.997922
N -t 1.016594 -n 21 -e 99.997922
N -t 1.016594 -n 13 -e 99.997355
N -t 1.016594 -n 24 -e 99.998176
N -t 1.016594 -n 18 -e 99.997922
N -t 1.016594 -n 14 -e 99.998176
N -t 1.016594 -n 11 -e 99.997667
N -t 1.016594 -n 2 -e 99.997922
N -t 1.016594 -n 10 -e 99.998430
N -t 1.016594 -n 7 -e 99.998176
N -t 1.016594 -n 0 -e 99.997922
N -t 1.016594 -n 4 -e 99.997667
N -t 1.016595 -n 5 -e 99.998430
N -t 1.016595 -n 17 -e 99.998685
N -t 1.016595 -n 3 -e 99.997667
N -t 1.016595 -n 15 -e 99.997922
N -t 1.016595 -n 12 -e 99.999251
N -t 1.016956 -n 6 -e 99.997830
N -t 1.016956 -n 18 -e 99.997830
N -t 1.016956 -n 20 -e 99.997336
N -t 1.016956 -n 9 -e 99.997576
N -t 1.016956 -n 24 -e 99.998085
N -t 1.016956 -n 11 -e 99.997576
N -t 1.016957 -n 21 -e 99.997830
N -t 1.016957 -n 4 -e 99.997576
N -t 1.016957 -n 2 -e 99.997830
N -t 1.016957 -n 3 -e 99.997576
N -t 1.016957 -n 14 -e 99.998085
N -t 1.016957 -n 0 -e 99.997830
N -t 1.016957 -n 10 -e 99.998339
N -t 1.016957 -n 7 -e 99.998085
N -t 1.016957 -n 5 -e 99.998339
N -t 1.016957 -n 17 -e 99.998594
N -t 1.016957 -n 15 -e 99.997830
s 1.017140025 _14_ RTR  --- 0 AODV 48 [0 ffffffff 9 800] [energy 99.998085 ei 0.000 es 0.000 et 0.000 er 0.002] ------- [14:255 -1:255 26 0] [0x2 5 1 [20 0] [4 4]] (REQUEST)
N -t 1.017270 -n 9 -e 99.997331
N -t 1.017271 -n 6 -e 99.997586
N -t 1.017271 -n 21 -e 99.997586
N -t 1.017271 -n 13 -e 99.996928
N -t 1.017271 -n 24 -e 99.997840
N -t 1.017271 -n 18 -e 99.997586
N -t 1.017271 -n 14 -e 99.997840
N -t 1.017271 -n 11 -e 99.997331
N -t 1.017271 -n 2 -e 99.997586
N -t 1.017271 -n 10 -e 99.998094
N -t 1.017271 -n 7 -e 99.997840
N -t 1.017271 -n 0 -e 99.997586
N -t 1.017271 -n 4 -e 99.997331
N -t 1.017271 -n 5 -e 99.998094
N -t 1.017271 -n 17 -e 99.998349
N -t 1.017272 -n 3 -e 99.997331
N -t 1.017272 -n 15 -e 99.997586
N -t 1.017272 -n 12 -e 99.999006
s 1.018046121 _21_ RTR  --- 0 AODV 48 [0 ffffffff 9 800] [energy 99.997586 ei 0.000 es 0.000 et 0.000 er 0.002] ------- [21:255 -1:255 26 0] [0x2 5 1 [20 0] [4 4]] (REQUEST)
N -t 1.018097 -n 6 -e 99.997494
N -t 1.018097 -n 18 -e 99.997494
N -t 1.018097 -n 20 -e 99.996755
N -t 1.018097 -n 9 -e 99.997240
N -t 1.018097 -n 24 -e 99.997749
N -t 1.018097 -n 11 -e 99.997240
N -t 1.018097 -n 21 -e 99.997494
N -t 1.018098 -n 4 -e 99.997240
N -t 1.018098 -n 2 -e 99.997494
N -t 1.018098 -n 3 -e 99.997240
N -t 1.018098 -n 14 -e 99.997749
N -t 1.018098 -n 0 -e 99.997494
N -t 1.018098 -n 10 -e 99.998003
N -t 1.018098 -n 7 -e 99.997749
N -t 1.018098 -n 5 -e 99.998003
N -t 1.018098 -n 17 -e 99.998258
N -t 1.018098 -n 15 -e 99.997494
r 1.018111552 _13_ RTR  --- 0 AODV 44 [13a d 14 800] [energy 99.996746 ei 0.000 es 0.000 et 0.001 er 0.002] ------- [20:255 4:255 30 13] [0x4 1 [20 4] 10.000000] (REPLY)
f 1.018111552 _13_ RTR  --- 0 AODV 44 [13a d 14 800] [energy 99.996746 ei 0.000 es 0.000 et 0.001 er 0.002] ------- [20:255 4:255 29 11] [0x4 2 [20 4] 10.000000] (REPLY)
N -t 1.018511 -n 13 -e 99.996491
N -t 1.018511 -n 6 -e 99.997240
N -t 1.018511 -n 24 -e 99.997494
N -t 1.018512 -n 20 -e 99.996501
N -t 1.018512 -n 9 -e 99.996986
N -t 1.018512 -n 11 -e 99.996986
N -t 1.018512 -n 21 -e 99.997240
N -t 1.018512 -n 4 -e 99.996986
N -t 1.018512 -n 3 -e 99.996986
N -t 1.018512 -n 2 -e 99.997240
N -t 1.018512 -n 14 -e 99.997494
N -t 1.018512 -n 0 -e 99.997240
N -t 1.018513 -n 10 -e 99.997749
N -t 1.018513 -n 7 -e 99.997494
s 1.018693131 _24_ RTR  --- 0 AODV 48 [0 ffffffff d 800] [energy 99.997494 ei 0.000 es 0.000 et 0.000 er 0.003] ------- [24:255 -1:255 27 0] [0x2 4 1 [20 0] [4 4]] (REQUEST)
r 1.019384131 _13_ RTR  --- 0 AODV 48 [0 ffffffff 12 800] [energy 99.996491 ei 0.000 es 0.000 et 0.001 er 0.002] ------- [18:255 -1:255 27 0] [0x2 4 1 [20 0] [4 4]] (REQUEST)
r 1.019384133 _6_ RTR  --- 0 AODV 48 [0 ffffffff 12 800] [energy 99.997240 ei 0.000 es 0.000 et 0.000 er 0.003] ------- [18:255 -1:255 27 0] [0x2 4 1 [20 0] [4 4]] (REQUEST)
r 1.019384476 _24_ RTR  --- 0 AODV 48 [0 ffffffff 12 800] [energy 99.997494 ei 0.000 es 0.000 et 0.000 er 0.003] ------- [18:255 -1:255 27 0] [0x2 4 1 [20 0] [4 4]] (REQUEST)
r 1.019384504 _20_ RTR  --- 0 AODV 48 [0 ffffffff 12 800] [energy 99.996501 ei 0.000 es 0.000 et 0.001 er 0.002] ------- [18:255 -1:255 27 0] [0x2 4 1 [20 0] [4 4]] (REQUEST)
r 1.019384620 _9_ RTR  --- 0 AODV 48 [0 ffffffff 12 800] [energy 99.996986 ei 0.000 es 0.000 et 0.001 er 0.003] ------- [18:255 -1:255 27 0] [0x2 4 1 [20 0] [4 4]] (REQUEST)
N -t 1.019589 -n 6 -e 99.997034
N -t 1.019589 -n 18 -e 99.996779
N -t 1.019590 -n 20 -e 99.996294
N -t 1.019590 -n 9 -e 99.996779
N -t 1.019590 -n 24 -e 99.997288
N -t 1.019590 -n 11 -e 99.996779
N -t 1.019590 -n 21 -e 99.997034
N -t 1.019590 -n 4 -e 99.996779
N -t 1.019590 -n 2 -e 99.997034
N -t 1.019590 -n 3 -e 99.996779
N -t 1.019590 -n 14 -e 99.997288
N -t 1.019590 -n 0 -e 99.997034
N -t 1.019591 -n 10 -e 99.997542
N -t 1.019591 -n 7 -e 99.997288
N -t 1.019591 -n 5 -e 99.997797
N -t 1.019591 -n 17 -e 99.998051
N -t 1.019591 -n 15 -e 99.997288
N -t 1.020373 -n 4 -e 99.996674
N -t 1.020373 -n 3 -e 99.996674
N -t 1.020374 -n 13 -e 99.995973
N -t 1.020374 -n 2 -e 99.996928
N -t 1.020374 -n 9 -e 99.996674
N -t 1.020374 -n 20 -e 99.996189
N -t 1.020374 -n 18 -e 99.996674
N -t 1.020374 -n 6 -e 99.996928
N -t 1.020374 -n 0 -e 99.996928
N -t 1.020374 -n 21 -e 99.996928
N -t 1.020374 -n 23 -e 99.998877
N -t 1.020374 -n 24 -e 99.997182
N -t 1.020374 -n 7 -e 99.997182
N -t 1.020374 -n 15 -e 99.997182
N -t 1.020374 -n 14 -e 99.997182
N -t 1.020374 -n 22 -e 99.999131
N -t 1.020374 -n 10 -e 99.997437
N -t 1.020374 -n 8 -e 99.999131
N -t 1.020374 -n 19 -e 99.999131
N -t 1.020375 -n 5 -e 99.997691
N -t 1.020375 -n 16 -e 99.999131
s 1.020655287 _6_ RTR  --- 0 AODV 48 [0 ffffffff d 800] [energy 99.996928 ei 0.000 es 0.000 et 0.000 er 0.003] ------- [6:255 -1:255 27 0] [0x2 4 1 [20 0] [4 4]] (REQUEST)
N -t 1.020736 -n 6 -e 99.996837
N -t 1.020736 -n 18 -e 99.996582
N -t 1.020736 -n 20 -e 99.996098
N -t 1.020736 -n 9 -e 99.996582
N -t 1.020736 -n 24 -e 99.997091
N -t 1.020736 -n 11 -e 99.996477
N -t 1.020736 -n 21 -e 99.996837
N -t 1.020737 -n 4 -e 99.996582
N -t 1.020737 -n 2 -e 99.996837
N -t 1.020737 -n 3 -e 99.996582
N -t 1.020737 -n 14 -e 99.997091
N -t 1.020737 -n 0 -e 99.996837
N -t 1.020737 -n 10 -e 99.997346
N -t 1.020737 -n 7 -e 99.997091
N -t 1.020737 -n 5 -e 99.997600
N -t 1.020737 -n 17 -e 99.997960
N -t 1.020737 -n 15 -e 99.997091
N -t 1.021051 -n 4 -e 99.996376
N -t 1.021051 -n 3 -e 99.996376
N -t 1.021051 -n 13 -e 99.995584
N -t 1.021051 -n 2 -e 99.996630
N -t 1.021051 -n 9 -e 99.996376
N -t 1.021051 -n 20 -e 99.995891
N -t 1.021051 -n 18 -e 99.996376
N -t 1.021051 -n 6 -e 99.996630
N -t 1.021051 -n 0 -e 99.996630
N -t 1.021051 -n 21 -e 99.996630
N -t 1.021051 -n 23 -e 99.998670
N -t 1.021052 -n 24 -e 99.996885
N -t 1.021052 -n 7 -e 99.996885
N -t 1.021052 -n 15 -e 99.996885
N -t 1.021052 -n 14 -e 99.996885
N -t 1.021052 -n 22 -e 99.998925
N -t 1.021052 -n 10 -e 99.997139
N -t 1.021052 -n 8 -e 99.998925
N -t 1.021052 -n 19 -e 99.998925
N -t 1.021052 -n 5 -e 99.997394
N -t 1.021052 -n 16 -e 99.998925
N -t 1.021749 -n 6 -e 99.996539
N -t 1.021749 -n 18 -e 99.996285
N -t 1.021749 -n 20 -e 99.995800
N -t 1.021749 -n 9 -e 99.996285
N -t 1.021750 -n 24 -e 99.996794
N -t 1.021750 -n 11 -e 99.995973
N -t 1.021750 -n 21 -e 99.996539
N -t 1.021750 -n 4 -e 99.996285
N -t 1.021750 -n 2 -e 99.996539
N -t 1.021750 -n 3 -e 99.996285
N -t 1.021750 -n 14 -e 99.996794
N -t 1.021750 -n 0 -e 99.996539
N -t 1.021750 -n 10 -e 99.997048
N -t 1.021750 -n 7 -e 99.996794
N -t 1.021751 -n 5 -e 99.997302
N -t 1.021751 -n 17 -e 99.997869
N -t 1.021751 -n 15 -e 99.996794
N -t 1.022334 -n 6 -e 99.996285
N -t 1.022334 -n 20 -e 99.995546
N -t 1.022334 -n 18 -e 99.996030
N -t 1.022334 -n 13 -e 99.995147
N -t 1.022334 -n 9 -e 99.996030
N -t 1.022334 -n 21 -e 99.996285
N -t 1.022335 -n 14 -e 99.996539
N -t 1.022335 -n 11 -e 99.995718
N -t 1.022335 -n 10 -e 99.996794
N -t 1.022335 -n 2 -e 99.996285
N -t 1.022335 -n 17 -e 99.997614
N -t 1.022335 -n 4 -e 99.996030
N -t 1.022335 -n 7 -e 99.996539
N -t 1.022335 -n 0 -e 99.996285
N -t 1.022335 -n 5 -e 99.997048
r 1.023206930 _6_ RTR  --- 0 AODV 48 [0 ffffffff 18 800] [energy 99.996285 ei 0.000 es 0.000 et 0.000 er 0.004] ------- [24:255 -1:255 27 0] [0x2 4 1 [20 0] [4 4]] (REQUEST)
r 1.023207041 _20_ RTR  --- 0 AODV 48 [0 ffffffff 18 800] [energy 99.995546 ei 0.000 es 0.000 et 0.001 er 0.003] ------- [24:255 -1:255 27 0] [0x2 4 1 [20 0] [4 4]] (REQUEST)
r 1.023207157 _18_ RTR  --- 0 AODV 48 [0 ffffffff 18 800] [energy 99.996030 ei 0.000 es 0.000 et 0.001 er 0.003] ------- [24:255 -1:255 27 0] [0x2 4 1 [20 0] [4 4]] (REQUEST)
r 1.023207160 _13_ RTR  --- 0 AODV 48 [0 ffffffff 18 800] [energy 99.995147 ei 0.000 es 0.000 et 0.002 er 0.003] ------- [24:255 -1:255 27 0] [0x2 4 1 [20 0] [4 4]] (REQUEST)
r 1.023207178 _9_ RTR  --- 0 AODV 48 [0 ffffffff 18 800] [energy 99.996030 ei 0.000 es 0.000 et 0.001 er 0.003] ------- [24:255 -1:255 27 0] [0x2 4 1 [20 0] [4 4]] (REQUEST)
N -t 1.023332 -n 6 -e 99.996179
N -t 1.023332 -n 18 -e 99.995925
N -t 1.023333 -n 20 -e 99.995440
N -t 1.023333 -n 9 -e 99.995925
N -t 1.023333 -n 24 -e 99.996179
N -t 1.023333 -n 11 -e 99.995613
N -t 1.023333 -n 21 -e 99.996179
N -t 1.023333 -n 4 -e 99.995925
N -t 1.023333 -n 2 -e 99.996179
N -t 1.023333 -n 3 -e 99.996179
N -t 1.023333 -n 14 -e 99.996434
N -t 1.023333 -n 0 -e 99.996179
N -t 1.023334 -n 10 -e 99.996688
N -t 1.023334 -n 7 -e 99.996434
N -t 1.023334 -n 5 -e 99.996942
N -t 1.023334 -n 17 -e 99.997509
N -t 1.023334 -n 15 -e 99.996688
N -t 1.023695 -n 4 -e 99.995834
N -t 1.023695 -n 3 -e 99.996088
N -t 1.023696 -n 13 -e 99.994845
N -t 1.023696 -n 2 -e 99.996088
N -t 1.023696 -n 9 -e 99.995834
N -t 1.023696 -n 20 -e 99.995349
N -t 1.023696 -n 18 -e 99.995834
N -t 1.023696 -n 6 -e 99.996088
N -t 1.023696 -n 0 -e 99.996088
N -t 1.023696 -n 21 -e 99.996088
N -t 1.023696 -n 23 -e 99.998579
N -t 1.023696 -n 24 -e 99.996088
N -t 1.023696 -n 7 -e 99.996342
N -t 1.023696 -n 15 -e 99.996597
N -t 1.023696 -n 14 -e 99.996342
N -t 1.023696 -n 22 -e 99.998834
N -t 1.023697 -n 10 -e 99.996597
N -t 1.023697 -n 8 -e 99.998834
N -t 1.023697 -n 19 -e 99.998834
N -t 1.023697 -n 5 -e 99.996851
N -t 1.023697 -n 16 -e 99.998834
N -t 1.024010 -n 6 -e 99.995843
N -t 1.024010 -n 18 -e 99.995589
N -t 1.024010 -n 20 -e 99.995104
N -t 1.024010 -n 9 -e 99.995589
N -t 1.024010 -n 24 -e 99.995843
N -t 1.024010 -n 11 -e 99.995186
N -t 1.024010 -n 21 -e 99.995843
N -t 1.024011 -n 4 -e 99.995589
N -t 1.024011 -n 2 -e 99.995843
N -t 1.024011 -n 3 -e 99.995843
N -t 1.024011 -n 14 -e 99.996098
N -t 1.024011 -n 0 -e 99.995843
N -t 1.024011 -n 10 -e 99.996352
N -t 1.024011 -n 7 -e 99.996098
N -t 1.024011 -n 5 -e 99.996606
N -t 1.024011 -n 17 -e 99.997264
N -t 1.024011 -n 15 -e 99.996352
N -t 1.024837 -n 4 -e 99.995498
N -t 1.024837 -n 3 -e 99.995752
N -t 1.024837 -n 13 -e 99.994264
N -t 1.024837 -n 2 -e 99.995752
N -t 1.024837 -n 9 -e 99.995498
N -t 1.024837 -n 20 -e 99.995013
N -t 1.024837 -n 18 -e 99.995498
N -t 1.024837 -n 6 -e 99.995752
N -t 1.024837 -n 0 -e 99.995752
N -t 1.024837 -n 21 -e 99.995752
N -t 1.024837 -n 23 -e 99.998488
N -t 1.024838 -n 24 -e 99.995752
N -t 1.024838 -n 7 -e 99.996006
N -t 1.024838 -n 15 -e 99.996261
N -t 1.024838 -n 14 -e 99.996006
N -t 1.024838 -n 22 -e 99.998742
N -t 1.024838 -n 10 -e 99.996261
N -t 1.024838 -n 8 -e 99.998742
N -t 1.024838 -n 19 -e 99.998742
N -t 1.024838 -n 5 -e 99.996515
N -t 1.024838 -n 16 -e 99.998742
r 1.024851245 _11_ RTR  --- 0 AODV 44 [13a b d 800] [energy 99.995003 ei 0.000 es 0.000 et 0.001 er 0.003] ------- [20:255 4:255 29 11] [0x4 2 [20 4] 10.000000] (REPLY)
f 1.024851245 _11_ RTR  --- 0 AODV 44 [13a b d 800] [energy 99.995003 ei 0.000 es 0.000 et 0.001 er 0.003] ------- [20:255 4:255 28 4] [0x4 3 [20 4] 10.000000] (REPLY)
N -t 1.025331 -n 4 -e 99.995291
N -t 1.025331 -n 3 -e 99.995546
N -t 1.025331 -n 13 -e 99.994058
N -t 1.025331 -n 2 -e 99.995546
N -t 1.025331 -n 9 -e 99.995291
N -t 1.025331 -n 20 -e 99.994806
N -t 1.025331 -n 18 -e 99.995291
N -t 1.025331 -n 6 -e 99.995546
N -t 1.025331 -n 0 -e 99.995546
N -t 1.025331 -n 21 -e 99.995546
N -t 1.025331 -n 23 -e 99.998282
N -t 1.025332 -n 24 -e 99.995546
N -t 1.025332 -n 7 -e 99.995800
N -t 1.025332 -n 15 -e 99.996054
N -t 1.025332 -n 14 -e 99.995800
N -t 1.025332 -n 22 -e 99.998536
N -t 1.025332 -n 10 -e 99.996054
N -t 1.025332 -n 8 -e 99.998536
N -t 1.025332 -n 19 -e 99.998536
N -t 1.025332 -n 5 -e 99.996309
N -t 1.025332 -n 16 -e 99.998536
N -t 1.026274 -n 11 -e 99.994485
N -t 1.026274 -n 3 -e 99.995440
N -t 1.026275 -n 13 -e 99.993952
N -t 1.026275 -n 2 -e 99.995440
N -t 1.026275 -n 23 -e 99.998176
N -t 1.026275 -n 0 -e 99.995440
N -t 1.026275 -n 18 -e 99.995186
N -t 1.026275 -n 9 -e 99.995186
N -t 1.026275 -n 20 -e 99.994701
N -t 1.026275 -n 6 -e 99.995440
N -t 1.026275 -n 22 -e 99.998430
N -t 1.026275 -n 21 -e 99.995440
N -t 1.026275 -n 8 -e 99.998430
N -t 1.026275 -n 19 -e 99.998430
N -t 1.026275 -n 15 -e 99.995949
N -t 1.026275 -n 7 -e 99.995694
N -t 1.026275 -n 24 -e 99.995440
N -t 1.026275 -n 16 -e 99.998430
N -t 1.026275 -n 14 -e 99.995694
N -t 1.026636 -n 4 -e 99.994989
N -t 1.026636 -n 3 -e 99.995349
N -t 1.026637 -n 13 -e 99.993861
N -t 1.026637 -n 2 -e 99.995349
N -t 1.026637 -n 9 -e 99.995094
N -t 1.026637 -n 20 -e 99.994610
N -t 1.026637 -n 18 -e 99.995094
N -t 1.026637 -n 6 -e 99.995349
N -t 1.026637 -n 0 -e 99.995349
N -t 1.026637 -n 21 -e 99.995349
N -t 1.026637 -n 23 -e 99.998085
N -t 1.026637 -n 24 -e 99.995349
N -t 1.026637 -n 7 -e 99.995603
N -t 1.026637 -n 15 -e 99.995858
N -t 1.026637 -n 14 -e 99.995603
N -t 1.026637 -n 22 -e 99.998339
N -t 1.026638 -n 10 -e 99.995963
N -t 1.026638 -n 8 -e 99.998339
N -t 1.026638 -n 19 -e 99.998339
N -t 1.026638 -n 5 -e 99.996218
N -t 1.026638 -n 16 -e 99.998339
N -t 1.026950 -n 11 -e 99.994096
N -t 1.026951 -n 3 -e 99.995142
N -t 1.026951 -n 13 -e 99.993654
N -t 1.026951 -n 2 -e 99.995142
N -t 1.026951 -n 23 -e 99.997878
N -t 1.026951 -n 0 -e 99.995142
N -t 1.026951 -n 18 -e 99.994888
N -t 1.026951 -n 9 -e 99.994888
N -t 1.026951 -n 20 -e 99.994403
N -t 1.026951 -n 6 -e 99.995142
N -t 1.026952 -n 22 -e 99.998133
N -t 1.026952 -n 21 -e 99.995142
N -t 1.026952 -n 8 -e 99.998133
N -t 1.026952 -n 19 -e 99.998133
N -t 1.026952 -n 15 -e 99.995651
N -t 1.026952 -n 7 -e 99.995397
N -t 1.026952 -n 24 -e 99.995142
N -t 1.026952 -n 16 -e 99.998133
N -t 1.026952 -n 14 -e 99.995397
N -t 1.027649 -n 4 -e 99.994485
N -t 1.027649 -n 3 -e 99.995051
N -t 1.027649 -n 13 -e 99.993563
N -t 1.027649 -n 2 -e 99.995051
N -t 1.027649 -n 9 -e 99.994797
N -t 1.027649 -n 20 -e 99.994312
N -t 1.027649 -n 18 -e 99.994797
N -t 1.027649 -n 6 -e 99.995051
N -t 1.027649 -n 0 -e 99.995051
N -t 1.027650 -n 21 -e 99.995051
N -t 1.027650 -n 23 -e 99.997787
N -t 1.027650 -n 24 -e 99.995051
N -t 1.027650 -n 7 -e 99.995306
N -t 1.027650 -n 15 -e 99.995560
N -t 1.027650 -n 14 -e 99.995306
N -t 1.027650 -n 22 -e 99.998042
N -t 1.027650 -n 10 -e 99.995872
N -t 1.027650 -n 8 -e 99.998042
N -t 1.027650 -n 19 -e 99.998042
N -t 1.027650 -n 5 -e 99.996126
N -t 1.027650 -n 16 -e 99.998042
N -t 1.028083 -n 4 -e 99.994379
N -t 1.028083 -n 3 -e 99.994946
N -t 1.028083 -n 13 -e 99.993458
N -t 1.028083 -n 2 -e 99.994946
N -t 1.028083 -n 9 -e 99.994691
N -t 1.028083 -n 20 -e 99.994206
N -t 1.028083 -n 18 -e 99.994691
N -t 1.028083 -n 6 -e 99.994946
N -t 1.028083 -n 0 -e 99.994946
N -t 1.028084 -n 21 -e 99.994946
N -t 1.028084 -n 23 -e 99.997682
N -t 1.028084 -n 24 -e 99.994946
N -t 1.028084 -n 7 -e 99.995200
N -t 1.028084 -n 15 -e 99.995454
N -t 1.028084 -n 14 -e 99.995200
N -t 1.028084 -n 22 -e 99.997936
N -t 1.028084 -n 10 -e 99.995766
N -t 1.028084 -n 8 -e 99.997936
N -t 1.028084 -n 19 -e 99.997936
N -t 1.028084 -n 5 -e 99.996021
N -t 1.028084 -n 16 -e 99.997936
N -t 1.028445 -n 11 -e 99.993611
N -t 1.028445 -n 3 -e 99.994854
N -t 1.028446 -n 13 -e 99.993366
N -t 1.028446 -n 2 -e 99.994854
N -t 1.028446 -n 23 -e 99.997590
N -t 1.028446 -n 0 -e 99.994854
N -t 1.028446 -n 18 -e 99.994600
N -t 1.028446 -n 9 -e 99.994600
N -t 1.028446 -n 20 -e 99.994115
N -t 1.028446 -n 6 -e 99.994854
N -t 1.028446 -n 22 -e 99.997845
N -t 1.028446 -n 21 -e 99.994854
N -t 1.028446 -n 8 -e 99.997845
N -t 1.028446 -n 19 -e 99.997845
N -t 1.028446 -n 15 -e 99.995363
N -t 1.028446 -n 7 -e 99.995109
N -t 1.028446 -n 24 -e 99.994854
N -t 1.028446 -n 16 -e 99.997845
N -t 1.028447 -n 14 -e 99.995109
N -t 1.028759 -n 4 -e 99.993952
N -t 1.028760 -n 3 -e 99.994610
N -t 1.028760 -n 13 -e 99.993122
N -t 1.028760 -n 2 -e 99.994610
N -t 1.028760 -n 9 -e 99.994355
N -t 1.028760 -n 20 -e 99.993870
N -t 1.028760 -n 18 -e 99.994355
N -t 1.028760 -n 6 -e 99.994610
N -t 1.028760 -n 0 -e 99.994610
N -t 1.028760 -n 21 -e 99.994610
N -t 1.028760 -n 23 -e 99.997346
N -t 1.028760 -n 24 -e 99.994610
N -t 1.028760 -n 7 -e 99.994864
N -t 1.028761 -n 15 -e 99.995118
N -t 1.028761 -n 14 -e 99.994864
N -t 1.028761 -n 22 -e 99.997600
N -t 1.028761 -n 10 -e 99.995522
N -t 1.028761 -n 8 -e 99.997600
N -t 1.028761 -n 19 -e 99.997600
N -t 1.028761 -n 5 -e 99.995776
N -t 1.028761 -n 16 -e 99.997600
N -t 1.029586 -n 11 -e 99.993030
N -t 1.029586 -n 3 -e 99.994518
N -t 1.029586 -n 13 -e 99.993030
N -t 1.029586 -n 2 -e 99.994518
N -t 1.029586 -n 23 -e 99.997254
N -t 1.029586 -n 0 -e 99.994518
N -t 1.029587 -n 18 -e 99.994264
N -t 1.029587 -n 9 -e 99.994264
N -t 1.029587 -n 20 -e 99.993779
N -t 1.029587 -n 6 -e 99.994518
N -t 1.029587 -n 22 -e 99.997509
N -t 1.029587 -n 21 -e 99.994518
N -t 1.029587 -n 8 -e 99.997509
N -t 1.029587 -n 19 -e 99.997509
N -t 1.029587 -n 15 -e 99.995027
N -t 1.029587 -n 7 -e 99.994773