n -t * -s 0  -x 548.79597134366441 -y 491.11229837458222 -Z 0 -z 50  -v circle -c green
n -t * -s 1  -x 655.49847700423493 -y 770.32240814078716 -Z 0 -z 50  -v circle -c green
n -t * -s 2  -x 510.89202776127121 -y 449.84846694853553 -Z 0 -z 50  -v circle -c green
n -t * -s 3  -x 753.9800050454121 -y 113.55583859307498 -Z 0 -z 50  -v circle -c green
n -t * -s 4  -x 666.22404226391768 -y 181.98266373108265 -Z 0 -z 50  -v circle -c green
n -t * -s 5  -x 228.28666038265763 -y 651.12084106128702 -Z 0 -z 50  -v circle -c green
n -t * -s 6  -x 234.96964631367925 -y 107.87647520558745 -Z 0 -z 50  -v circle -c green
n -t * -s 7  -x 349.89847538522372 -y 594.94063956427419 -Z 0 -z 50  -v circle -c green
n -t * -s 8  -x 959.16144594511093 -y 501.13759958238228 -Z 0 -z 50  -v circle -c green
n -t * -s 9  -x 274.5452263739636 -y 225.29573376537101 -Z 0 -z 50  -v circle -c green
n -t * -s 10  -x 181.7467432384131 -y 494.01088640746241 -Z 0 -z 50  -v circle -c green
n -t * -s 11  -x 551.20981277488636 -y 146.65864601110044 -Z 0 -z 50  -v circle -c green
n -t * -s 12  -x 114.82938570660976 -y 749.98845679219266 -Z 0 -z 50  -v circle -c green
n -t * -s 13  -x 319.99163297935928 -y 79.500387273496202 -Z 0 -z 50  -v circle -c green
n -t * -s 14  -x 203.76113206323291 -y 490.67726940413809 -Z 0 -z 50  -v circle -c green
n -t * -s 15  -x 516.08359418627037 -y 653.57399091756622 -Z 0 -z 50  -v circle -c green
n -t * -s 16  -x 772.58168941949566 -y 624.36325877176751 -Z 0 -z 50  -v circle -c green
n -t * -s 17  -x 91.612721370352773 -y 588.00645721517799 -Z 0 -z 50  -v circle -c green
n -t * -s 18  -x 280.65801937163712 -y 15.465263284493828 -Z 0 -z 50  -v circle -c green
n -t * -s 19  -x 905.85002810966682 -y 497.137951337331 -Z 0 -z 50  -v circle -c green
n -t * -s 20  -x 246.93515815163735 -y 191.3624436554324 -Z 0 -z 50  -v circle -c green
n -t * -s 21  -x 285.7381460656124 -y 320.81673979797245 -Z 0 -z 50  -v circle -c green
n -t * -s 22  -x 958.68223065449035 -y 457.8004880146126 -Z 0 -z 50  -v circle -c green
n -t * -s 23  -x 816.00257699191695 -y 444.2492025179086 -Z 0 -z 50  -v circle -c green
n -t * -s 24  -x 120.43339811285649 -y 99.297666223392667 -Z 0 -z 50  -v circle -c green
V -t * -v 1.0a5 -a 0
W -t * -x 1000 -y 800
A -t * -n 1 -p 0 -o 0x7fffffff -c 30 -a 1
A -t * -h 1 -m 1073741823 -s 0
c -t * -i 0 -n red
v -t 0.01 -e sim_annotation 0.01 1 Network Deployment
n -t 0.100000 -s 0 -x 548.795971 -y 491.112298 -U -32.795294 -V -22.901282 -T 13.079642
n -t 0.100000 -s 1 -x 655.498477 -y 770.322408 -U 1.905046 -V -39.954609 -T 14.250946
n -t 0.100000 -s 2 -x 510.892028 -y 449.848467 -U -34.880489 -V -19.579363 -T 5.532129
n -t 0.100000 -s 3 -x 753.980005 -y 113.555839 -U -38.291351 -V 11.566005 -T 15.006747
n -t 0.100000 -s 4 -x 666.224042 -y 181.982664 -U -39.044043 -V -8.692682 -T 14.114548
n -t 0.100000 -s 5 -x 228.286660 -y 651.120841 -U 25.294639 -V -30.986792 -T 14.526100
n -t 0.100000 -s 6 -x 234.969646 -y 107.876475 -U 39.411568 -V -6.835810 -T 15.206852
n -t 0.100000 -s 7 -x 349.898475 -y 594.940640 -U 11.974954 -V -38.165436 -T 9.706386
n -t 0.100000 -s 8 -x 959.161446 -y 501.137600 -U -39.997613 -V 0.436992 -T 16.476248
n -t 0.100000 -s 9 -x 274.545226 -y 225.295734 -U 17.237256 -V 36.095388 -T 15.235028
n -t 0.100000 -s 10 -x 181.746743 -y 494.010886 -U 7.287430 -V 39.330565 -T 1.437548
n -t 0.100000 -s 11 -x 551.209813 -y 146.658646 -U -14.977735 -V 37.089991 -T 11.621388
n -t 0.100000 -s 12 -x 114.829386 -y 749.988457 -U 23.984706 -V -32.011465 -T 23.018673
n -t 0.100000 -s 13 -x 319.991633 -y 79.500387 -U 23.200725 -V 32.584143 -T 19.931065
n -t 0.100000 -s 14 -x 203.761132 -y 490.677269 -U -16.931922 -V -36.239620 -T 8.695056
n -t 0.100000 -s 15 -x 516.083594 -y 653.573991 -U 3.873528 -V -39.812006 -T 6.922259
n -t 0.100000 -s 16 -x 772.581689 -y 624.363259 -U 35.848222 -V 17.745563 -T 6.119717
n -t 0.100000 -s 17 -x 91.612721 -y 588.006457 -U 38.503621 -V 10.838414 -T 13.098099
n -t 0.100000 -s 18 -x 280.658019 -y 15.465263 -U 38.194933 -V 11.880533 -T 11.967086
n -t 0.100000 -s 19 -x 905.850028 -y 497.137951 -U -11.560674 -V 38.292960 -T 6.349431
n -t 0.100000 -s 20 -x 246.935158 -y 191.362444 -U 25.268016 -V 31.008505 -T 1.441218
n -t 0.100000 -s 21 -x 285.738146 -y 320.816740 -U -28.706075 -V 27.856081 -T 4.130589
n -t 0.100000 -s 22 -x 958.682231 -y 457.800488 -U -39.837034 -V -3.607043 -T 17.344834
n -t 0.100000 -s 23 -x 816.002577 -y 444.249203 -U -39.456725 -V 6.570151 -T 9.690007
n -t 0.100000 -s 24 -x 120.433398 -y 99.297666 -U 32.634186 -V 23.130281 -T 15.875538
+ -t 1.000000000 -s 4 -d -1 -p cbr -e 1000 -c 2 -a 0 -i 0 -k AGT 
- -t 1.000000000 -s 4 -d -1 -p cbr -e 1000 -c 2 -a 0 -i 0 -k AGT
h -t 1.000000000 -s 4 -d -1 -p cbr -e 1000 -c 2 -a 0 -i 0 -k AGT
m -t 1 -s 4 -n m -c blue -h square
m -t 1 -s 20 -n m -c red -h square
n -t 1 -s 4 -S DLABEL -l "SENDER" -L ""
n -t 1 -s 20 -S DLABEL -l "RECEIVER" -L ""
+ -t 1.000000000 -s 4 -d -1 -p AODV -e 48 -c 2 -a 0 -i 0 -k RTR 
- -t 1.000000000 -s 4 -d -1 -p AODV -e 48 -c 2 -a 0 -i 0 -k RTR
h -t 1.000000000 -s 4 -d -1 -p AODV -e 48 -c 2 -a 0 -i 0 -k RTR
r -t 1.001408312 -s 11 -d -1 -p AODV -e 48 -c 2 -a 0 -i 0 -k RTR
r -t 1.001408339 -s 3 -d -1 -p AODV -e 48 -c 2 -a 0 -i 0 -k RTR
+ -t 1.001550358 -s 11 -d -1 -p AODV -e 48 -c 2 -a 0 -i 0 -k RTR 
- -t 1.001550358 -s 11 -d -1 -p AODV -e 48 -c 2 -a 0 -i 0 -k RTR
h -t 1.001550358 -s 11 -d -1 -p AODV -e 48 -c 2 -a 0 -i 0 -k RTR
+ -t 1.002289566 -s 3 -d -1 -p AODV -e 48 -c 2 -a 0 -i 0 -k RTR 
- -t 1.002289566 -s 3 -d -1 -p AODV -e 48 -c 2 -a 0 -i 0 -k RTR
h -t 1.002289566 -s 3 -d -1 -p AODV -e 48 -c 2 -a 0 -i 0 -k RTR
r -t 1.002818670 -s 4 -d -1 -p AODV -e 48 -c 2 -a 0 -i 0 -k RTR
r -t 1.002818992 -s 3 -d -1 -p AODV -e 48 -c 2 -a 0 -i 0 -k RTR
r -t 1.002819056 -s 13 -d -1 -p AODV -e 48 -c 2 -a 0 -i 0 -k RTR
r -t 1.003717331 -s 4 -d -1 -p AODV -e 48 -c 2 -a 0 -i 0 -k RTR
r -t 1.003717626 -s 11 -d -1 -p AODV -e 48 -c 2 -a 0 -i 0 -k RTR
+ -t 1.010983816 -s 13 -d -1 -p AODV -e 48 -c 2 -a 0 -i 0 -k RTR 
- -t 1.010983816 -s 13 -d -1 -p AODV -e 48 -c 2 -a 0 -i 0 -k RTR
h -t 1.010983816 -s 13 -d -1 -p AODV -e 48 -c 2 -a 0 -i 0 -k RTR
r -t 1.012292052 -s 6 -d -1 -p AODV -e 48 -c 2 -a 0 -i 0 -k RTR
r -t 1.012292106 -s 18 -d -1 -p AODV -e 48 -c 2 -a 0 -i 0 -k RTR
r -t 1.012292254 -s 20 -d -1 -p AODV -e 48 -c 2 -a 0 -i 0 -k RTR
+ -t 1.012292254 -s 20 -d 13 -p AODV -e 44 -c 2 -a 0 -i 0 -k RTR 
- -t 1.012292254 -s 20 -d 13 -p AODV -e 44 -c 2 -a 0 -i 0 -k RTR
h -t 1.012292254 -s 20 -d 13 -p AODV -e 44 -c 2 -a 0 -i 0 -k RTR
r -t 1.012292341 -s 9 -d -1 -p AODV -e 48 -c 2 -a 0 -i 0 -k RTR
r -t 1.012292454 -s 24 -d -1 -p AODV -e 48 -c 2 -a 0 -i 0 -k RTR
r -t 1.012292513 -s 11 -d -1 -p AODV -e 48 -c 2 -a 0 -i 0 -k RTR
+ -t 1.012720287 -s 9 -d -1 -p AODV -e 48 -c 2 -a 0 -i 0 -k RTR 
- -t 1.012720287 -s 9 -d -1 -p AODV -e 48 -c 2 -a 0 -i 0 -k RTR
h -t 1.012720287 -s 9 -d -1 -p AODV -e 48 -c 2 -a 0 -i 0 -k RTR
+ -t 1.013933560 -s 18 -d -1 -p AODV -e 48 -c 2 -a 0 -i 0 -k RTR 
- -t 1.013933560 -s 18 -d -1 -p AODV -e 48 -c 2 -a 0 -i 0 -k RTR
h -t 1.013933560 -s 18 -d -1 -p AODV -e 48 -c 2 -a 0 -i 0 -k RTR
r -t 1.014558545 -s 20 -d -1 -p AODV -e 48 -c 2 -a 0 -i 0 -k RTR
r -t 1.014558710 -s 21 -d -1 -p AODV -e 48 -c 2 -a 0 -i 0 -k RTR
r -t 1.014558925 -s 13 -d -1 -p AODV -e 48 -c 2 -a 0 -i 0 -k RTR
r -t 1.014558926 -s 6 -d -1 -p AODV -e 48 -c 2 -a 0 -i 0 -k RTR
r -t 1.014559055 -s 24 -d -1 -p AODV -e 48 -c 2 -a 0 -i 0 -k RTR
r -t 1.014559146 -s 14 -d -1 -p AODV -e 48 -c 2 -a 0 -i 0 -k RTR
r -t 1.014559177 -s 18 -d -1 -p AODV -e 48 -c 2 -a 0 -i 0 -k RTR
+ -t 1.017140025 -s 14 -d -1 -p AODV -e 48 -c 2 -a 0 -i 0 -k RTR 
- -t 1.017140025 -s 14 -d -1 -p AODV -e 48 -c 2 -a 0 -i 0 -k RTR
h -t 1.017140025 -s 14 -d -1 -p AODV -e 48 -c 2 -a 0 -i 0 -k RTR
+ -t 1.018046121 -s 21 -d -1 -p AODV -e 48 -c 2 -a 0 -i 0 -k RTR 
- -t 1.018046121 -s 21 -d -1 -p AODV -e 48 -c 2 -a 0 -i 0 -k RTR
h -t 1.018046121 -s 21 -d -1 -p AODV -e 48 -c 2 -a 0 -i 0 -k RTR
+ -t 1.018111552 -s 13 -d 11 -p AODV -e 44 -c 2 -a 0 -i 0 -k RTR 
- -t 1.018111552 -s 13 -d 11 -p AODV -e 44 -c 2 -a 0 -i 0 -k RTR
h -t 1.018111552 -s 13 -d 11 -p AODV -e 44 -c 2 -a 0 -i 0 -k RTR
+ -t 1.018693131 -s 24 -d -1 -p AODV -e 48 -c 2 -a 0 -i 0 -k RTR 
- -t 1.018693131 -s 24 -d -1 -p AODV -e 48 -c 2 -a 0 -i 0 -k RTR
h -t 1.018693131 -s 24 -d -1 -p AODV -e 48 -c 2 -a 0 -i 0 -k RTR
r -t 1.019384131 -s 13 -d -1 -p AODV -e 48 -c 2 -a 0 -i 0 -k RTR
r -t 1.019384133 -s 6 -d -1 -p AODV -e 48 -c 2 -a 0 -i 0 -k RTR
r -t 1.019384476 -s 24 -d -1 -p AODV -e 48 -c 2 -a 0 -i 0 -k RTR
r -t 1.019384504 -s 20 -d -1 -p AODV -e 48 -c 2 -a 0 -i 0 -k RTR
r -t 1.019384620 -s 9 -d -1 -p AODV -e 48 -c 2 -a 0 -i 0 -k RTR
+ -t 1.020655287 -s 6 -d -1 -p AODV -e 48 -c 2 -a 0 -i 0 -k RTR 
- -t 1.020655287 -s 6 -d -1 -p AODV -e 48 -c 2 -a 0 -i 0 -k RTR
h -t 1.020655287 -s 6 -d -1 -p AODV -e 48 -c 2 -a 0 -i 0 -k RTR
r -t 1.023206930 -s 6 -d -1 -p AODV -e 48 -c 2 -a 0 -i 0 -k RTR
r -t 1.023207041 -s 20 -d -1 -p AODV -e 48 -c 2 -a 0 -i 0 -k RTR
r -t 1.023207157 -s 18 -d -1 -p AODV -e 48 -c 2 -a 0 -i 0 -k RTR
r -t 1.023207160 -s 13 -d -1 -p AODV -e 48 -c 2 -a 0 -i 0 -k RTR
r -t 1.023207178 -s 9 -d -1 -p AODV -e 48 -c 2 -a 0 -i 0 -k RTR
+ -t 1.024851245 -s 11 -d 4 -p AODV -e 44 -c 2 -a 0 -i 0 -k RTR 
- -t 1.024851245 -s 11 -d 4 -p AODV -e 44 -c 2 -a 0 -i 0 -k RTR
h -t 1.024851245 -s 11 -d 4 -p AODV -e 44 -c 2 -a 0 -i 0 -k RTR
+ -t 1.029600415 -s 4 -d 11 -p cbr -e 1020 -c 2 -a 0 -i 0 -k RTR 
- -t 1.029600415 -s 4 -d 11 -p cbr -e 1020 -c 2 -a 0 -i 0 -k RTR
h -t 1.029600415 -s 4 -d 11 -p cbr -e 1020 -c 2 -a 0 -i 0 -k RTR
+ -t 1.039305344 -s 11 -d 13 -p cbr -e 1020 -c 2 -a 0 -i 0 -k RTR 
- -t 1.039305344 -s 11 -d 13 -p cbr -e 1020 -c 2 -a 0 -i 0 -k RTR
h -t 1.039305344 -s 11 -d 13 -p cbr -e 1020 -c 2 -a 0 -i 0 -k RTR
r -t 1.040902501 -s 13 -d -1 -p AODV -e 48 -c 2 -a 0 -i 0 -k RTR
r -t 1.040902557 -s 18 -d -1 -p AODV -e 48 -c 2 -a 0 -i 0 -k RTR
r -t 1.040902664 -s 20 -d -1 -p AODV -e 48 -c 2 -a 0 -i 0 -k RTR
r -t 1.040902675 -s 24 -d -1 -p AODV -e 48 -c 2 -a 0 -i 0 -k RTR
r -t 1.040902797 -s 9 -d -1 -p AODV -e 48 -c 2 -a 0 -i 0 -k RTR
r -t 1.040903087 -s 21 -d -1 -p AODV -e 48 -c 2 -a 0 -i 0 -k RTR
r -t 1.041961398 -s 9 -d -1 -p AODV -e 48 -c 2 -a 0 -i 0 -k RTR
r -t 1.041961510 -s 20 -d -1 -p AODV -e 48 -c 2 -a 0 -i 0 -k RTR
r -t 1.041961522 -s 14 -d -1 -p AODV -e 48 -c 2 -a 0 -i 0 -k RTR
r -t 1.041961743 -s 10 -d -1 -p AODV -e 48 -c 2 -a 0 -i 0 -k RTR
r -t 1.041961870 -s 2 -d -1 -p AODV -e 48 -c 2 -a 0 -i 0 -k RTR
r -t 1.041961872 -s 7 -d -1 -p AODV -e 48 -c 2 -a 0 -i 0 -k RTR
r -t 1.041961907 -s 6 -d -1 -p AODV -e 48 -c 2 -a 0 -i 0 -k RTR
+ -t 1.042069954 -s 2 -d -1 -p AODV -e 48 -c 2 -a 0 -i 0 -k RTR 
- -t 1.042069954 -s 2 -d -1 -p AODV -e 48 -c 2 -a 0 -i 0 -k RTR
h -t 1.042069954 -s 2 -d -1 -p AODV -e 48 -c 2 -a 0 -i 0 -k RTR
+ -t 1.042545769 -s 10 -d -1 -p AODV -e 48 -c 2 -a 0 -i 0 -k RTR 
- -t 1.042545769 -s 10 -d -1 -p AODV -e 48 -c 2 -a 0 -i 0 -k RTR
h -t 1.042545769 -s 10 -d -1 -p AODV -e 48 -c 2 -a 0 -i 0 -k RTR
r -t 1.043279770 -s 10 -d -1 -p AODV -e 48 -c 2 -a 0 -i 0 -k RTR
r -t 1.043279956 -s 21 -d -1 -p AODV -e 48 -c 2 -a 0 -i 0 -k RTR
r -t 1.043280035 -s 17 -d -1 -p AODV -e 48 -c 2 -a 0 -i 0 -k RTR
r -t 1.043280113 -s 5 -d -1 -p AODV -e 48 -c 2 -a 0 -i 0 -k RTR
r -t 1.043280193 -s 7 -d -1 -p AODV -e 48 -c 2 -a 0 -i 0 -k RTR
r -t 1.043280263 -s 9 -d -1 -p AODV -e 48 -c 2 -a 0 -i 0 -k RTR
r -t 1.044458019 -s 14 -d -1 -p AODV -e 48 -c 2 -a 0 -i 0 -k RTR
r -t 1.044458072 -s 17 -d -1 -p AODV -e 48 -c 2 -a 0 -i 0 -k RTR
r -t 1.044458140 -s 5 -d -1 -p AODV -e 48 -c 2 -a 0 -i 0 -k RTR
r -t 1.044458353 -s 7 -d -1 -p AODV -e 48 -c 2 -a 0 -i 0 -k RTR
r -t 1.044458422 -s 12 -d -1 -p AODV -e 48 -c 2 -a 0 -i 0 -k RTR
r -t 1.044458427 -s 21 -d -1 -p AODV -e 48 -c 2 -a 0 -i 0 -k RTR
+ -t 1.045849972 -s 17 -d -1 -p AODV -e 48 -c 2 -a 0 -i 0 -k RTR 
- -t 1.045849972 -s 17 -d -1 -p AODV -e 48 -c 2 -a 0 -i 0 -k RTR
h -t 1.045849972 -s 17 -d -1 -p AODV -e 48 -c 2 -a 0 -i 0 -k RTR
r -t 1.047204290 -s 12 -d -1 -p AODV -e 48 -c 2 -a 0 -i 0 -k RTR
+ -t 1.047912145 -s 7 -d -1 -p AODV -e 48 -c 2 -a 0 -i 0 -k RTR 
- -t 1.047912145 -s 7 -d -1 -p AODV -e 48 -c 2 -a 0 -i 0 -k RTR
h -t 1.047912145 -s 7 -d -1 -p AODV -e 48 -c 2 -a 0 -i 0 -k RTR
+ -t 1.050266846 -s 5 -d -1 -p AODV -e 48 -c 2 -a 0 -i 0 -k RTR 
- -t 1.050266846 -s 5 -d -1 -p AODV -e 48 -c 2 -a 0 -i 0 -k RTR
h -t 1.050266846 -s 5 -d -1 -p AODV -e 48 -c 2 -a 0 -i 0 -k RTR
+ -t 1.053224979 -s 12 -d -1 -p AODV -e 48 -c 2 -a 0 -i 0 -k RTR 
- -t 1.053224979 -s 12 -d -1 -p AODV -e 48 -c 2 -a 0 -i 0 -k RTR
h -t 1.053224979 -s 12 -d -1 -p AODV -e 48 -c 2 -a 0 -i 0 -k RTR
+ -t 1.054255493 -s 13 -d 20 -p cbr -e 1020 -c 2 -a 0 -i 0 -k RTR 
- -t 1.054255493 -s 13 -d 20 -p cbr -e 1020 -c 2 -a 0 -i 0 -k RTR
h -t 1.054255493 -s 13 -d 20 -p cbr -e 1020 -c 2 -a 0 -i 0 -k RTR
r -t 1.054473383 -s 17 -d -1 -p AODV -e 48 -c 2 -a 0 -i 0 -k RTR
r -t 1.063920806 -s 20 -d 20 -p cbr -e 1020 -c 2 -a 0 -i 0 -k AGT
r -t 1.065578507 -s 10 -d -1 -p AODV -e 48 -c 2 -a 0 -i 0 -k RTR
r -t 1.065578560 -s 7 -d -1 -p AODV -e 48 -c 2 -a 0 -i 0 -k RTR
r -t 1.065578561 -s 17 -d -1 -p AODV -e 48 -c 2 -a 0 -i 0 -k RTR
r -t 1.065578643 -s 12 -d -1 -p AODV -e 48 -c 2 -a 0 -i 0 -k RTR
r -t 1.065578734 -s 14 -d -1 -p AODV -e 48 -c 2 -a 0 -i 0 -k RTR
r -t 1.066616979 -s 5 -d -1 -p AODV -e 48 -c 2 -a 0 -i 0 -k RTR
r -t 1.066617121 -s 15 -d -1 -p AODV -e 48 -c 2 -a 0 -i 0 -k RTR
r -t 1.066617133 -s 2 -d -1 -p AODV -e 48 -c 2 -a 0 -i 0 -k RTR
r -t 1.066617142 -s 10 -d -1 -p AODV -e 48 -c 2 -a 0 -i 0 -k RTR
r -t 1.066617158 -s 0 -d -1 -p AODV -e 48 -c 2 -a 0 -i 0 -k RTR
r -t 1.066617233 -s 14 -d -1 -p AODV -e 48 -c 2 -a 0 -i 0 -k RTR
r -t 1.066617341 -s 21 -d -1 -p AODV -e 48 -c 2 -a 0 -i 0 -k RTR
r -t 1.066617347 -s 17 -d -1 -p AODV -e 48 -c 2 -a 0 -i 0 -k RTR
r -t 1.067595317 -s 0 -d -1 -p AODV -e 48 -c 2 -a 0 -i 0 -k RTR
r -t 1.067595706 -s 7 -d -1 -p AODV -e 48 -c 2 -a 0 -i 0 -k RTR
r -t 1.067595763 -s 15 -d -1 -p AODV -e 48 -c 2 -a 0 -i 0 -k RTR
r -t 1.067595914 -s 21 -d -1 -p AODV -e 48 -c 2 -a 0 -i 0 -k RTR
+ -t 1.068404399 -s 15 -d -1 -p AODV -e 48 -c 2 -a 0 -i 0 -k RTR 
- -t 1.068404399 -s 15 -d -1 -p AODV -e 48 -c 2 -a 0 -i 0 -k RTR
h -t 1.068404399 -s 15 -d -1 -p AODV -e 48 -c 2 -a 0 -i 0 -k RTR
r -t 1.069392886 -s 0 -d -1 -p AODV -e 48 -c 2 -a 0 -i 0 -k RTR
r -t 1.069392960 -s 7 -d -1 -p AODV -e 48 -c 2 -a 0 -i 0 -k RTR
r -t 1.069393000 -s 1 -d -1 -p AODV -e 48 -c 2 -a 0 -i 0 -k RTR
r -t 1.069393029 -s 2 -d -1 -p AODV -e 48 -c 2 -a 0 -i 0 -k RTR
+ -t 1.076377225 -s 0 -d -1 -p AODV -e 48 -c 2 -a 0 -i 0 -k RTR 
- -t 1.076377225 -s 0 -d -1 -p AODV -e 48 -c 2 -a 0 -i 0 -k RTR
h -t 1.076377225 -s 0 -d -1 -p AODV -e 48 -c 2 -a 0 -i 0 -k RTR
r -t 1.077525408 -s 2 -d -1 -p AODV -e 48 -c 2 -a 0 -i 0 -k RTR
r -t 1.077525711 -s 15 -d -1 -p AODV -e 48 -c 2 -a 0 -i 0 -k RTR
r -t 1.077525821 -s 7 -d -1 -p AODV -e 48 -c 2 -a 0 -i 0 -k RTR
+ -t 1.078044055 -s 1 -d -1 -p AODV -e 48 -c 2 -a 0 -i 0 -k RTR 
- -t 1.078044055 -s 1 -d -1 -p AODV -e 48 -c 2 -a 0 -i 0 -k RTR
h -t 1.078044055 -s 1 -d -1 -p AODV -e 48 -c 2 -a 0 -i 0 -k RTR
r -t 1.079072638 -s 16 -d -1 -p AODV -e 48 -c 2 -a 0 -i 0 -k RTR
r -t 1.079072656 -s 15 -d -1 -p AODV -e 48 -c 2 -a 0 -i 0 -k RTR
+ -t 1.087216640 -s 16 -d -1 -p AODV -e 48 -c 2 -a 0 -i 0 -k RTR 
- -t 1.087216640 -s 16 -d -1 -p AODV -e 48 -c 2 -a 0 -i 0 -k RTR
h -t 1.087216640 -s 16 -d -1 -p AODV -e 48 -c 2 -a 0 -i 0 -k RTR
r -t 1.088225098 -s 19 -d -1 -p AODV -e 48 -c 2 -a 0 -i 0 -k RTR
r -t 1.088225223 -s 1 -d -1 -p AODV -e 48 -c 2 -a 0 -i 0 -k RTR
r -t 1.088225238 -s 8 -d -1 -p AODV -e 48 -c 2 -a 0 -i 0 -k RTR
r -t 1.088225285 -s 23 -d -1 -p AODV -e 48 -c 2 -a 0 -i 0 -k RTR
r -t 1.088225367 -s 22 -d -1 -p AODV -e 48 -c 2 -a 0 -i 0 -k RTR
+ -t 1.094086362 -s 8 -d -1 -p AODV -e 48 -c 2 -a 0 -i 0 -k RTR 
- -t 1.094086362 -s 8 -d -1 -p AODV -e 48 -c 2 -a 0 -i 0 -k RTR
h -t 1.094086362 -s 8 -d -1 -p AODV -e 48 -c 2 -a 0 -i 0 -k RTR
r -t 1.095154502 -s 19 -d -1 -p AODV -e 48 -c 2 -a 0 -i 0 -k RTR
r -t 1.095154520 -s 22 -d -1 -p AODV -e 48 -c 2 -a 0 -i 0 -k RTR
r -t 1.095154867 -s 23 -d -1 -p AODV -e 48 -c 2 -a 0 -i 0 -k RTR
r -t 1.095154959 -s 16 -d -1 -p AODV -e 48 -c 2 -a 0 -i 0 -k RTR
+ -t 1.095583690 -s 23 -d -1 -p AODV -e 48 -c 2 -a 0 -i 0 -k RTR 
- -t 1.095583690 -s 23 -d -1 -p AODV -e 48 -c 2 -a 0 -i 0 -k RTR
h -t 1.095583690 -s 23 -d -1 -p AODV -e 48 -c 2 -a 0 -i 0 -k RTR
+ -t 1.096245486 -s 22 -d -1 -p AODV -e 48 -c 2 -a 0 -i 0 -k RTR 
- -t 1.096245486 -s 22 -d -1 -p AODV -e 48 -c 2 -a 0 -i 0 -k RTR
h -t 1.096245486 -s 22 -d -1 -p AODV -e 48 -c 2 -a 0 -i 0 -k RTR
+ -t 1.096971561 -s 19 -d -1 -p AODV -e 48 -c 2 -a 0 -i 0 -k RTR 
- -t 1.096971561 -s 19 -d -1 -p AODV -e 48 -c 2 -a 0 -i 0 -k RTR
h -t 1.096971561 -s 19 -d -1 -p AODV -e 48 -c 2 -a 0 -i 0 -k RTR
r -t 1.096972165 -s 22 -d -1 -p AODV -e 48 -c 2 -a 0 -i 0 -k RTR
r -t 1.096972173 -s 19 -d -1 -p AODV -e 48 -c 2 -a 0 -i 0 -k RTR
r -t 1.096972195 -s 8 -d -1 -p AODV -e 48 -c 2 -a 0 -i 0 -k RTR
r -t 1.096972337 -s 16 -d -1 -p AODV -e 48 -c 2 -a 0 -i 0 -k RTR
r -t 1.098219701 -s 8 -d -1 -p AODV -e 48 -c 2 -a 0 -i 0 -k RTR
r -t 1.098219844 -s 22 -d -1 -p AODV -e 48 -c 2 -a 0 -i 0 -k RTR
r -t 1.098220018 -s 16 -d -1 -p AODV -e 48 -c 2 -a 0 -i 0 -k RTR
r -t 1.098220044 -s 23 -d -1 -p AODV -e 48 -c 2 -a 0 -i 0 -k RTR
r -t 1.099318002 -s 8 -d -1 -p AODV -e 48 -c 2 -a 0 -i 0 -k RTR
r -t 1.099318127 -s 19 -d -1 -p AODV -e 48 -c 2 -a 0 -i 0 -k RTR
r -t 1.099318318 -s 23 -d -1 -p AODV -e 48 -c 2 -a 0 -i 0 -k RTR
r -t 1.099318570 -s 16 -d -1 -p AODV -e 48 -c 2 -a 0 -i 0 -k RTR
+ -t 1.100000000 -s 4 -d -1 -p cbr -e 1000 -c 2 -a 0 -i 1 -k AGT 
- -t 1.100000000 -s 4 -d -1 -p cbr -e 1000 -c 2 -a 0 -i 1 -k AGT
h -t 1.100000000 -s 4 -d -1 -p cbr -e 1000 -c 2 -a 0 -i 1 -k AGT
+ -t 1.100000000 -s 4 -d 11 -p cbr -e 1020 -c 2 -a 0 -i 1 -k RTR 
- -t 1.100000000 -s 4 -d 11 -p cbr -e 1020 -c 2 -a 0 -i 1 -k RTR
h -t 1.100000000 -s 4 -d 11 -p cbr -e 1020 -c 2 -a 0 -i 1 -k RTR
+ -t 1.109440915 -s 11 -d 13 -p cbr -e 1020 -c 2 -a 0 -i 1 -k RTR 
- -t 1.109440915 -s 11 -d 13 -p cbr -e 1020 -c 2 -a 0 -i 1 -k RTR
h -t 1.109440915 -s 11 -d 13 -p cbr -e 1020 -c 2 -a 0 -i 1 -k RTR
+ -t 1.119686971 -s 13 -d 20 -p cbr -e 1020 -c 2 -a 0 -i 1 -k RTR 
- -t 1.119686971 -s 13 -d 20 -p cbr -e 1020 -c 2 -a 0 -i 1 -k RTR
h -t 1.119686971 -s 13 -d 20 -p cbr -e 1020 -c 2 -a 0 -i 1 -k RTR
r -t 1.129532282 -s 20 -d 20 -p cbr -e 1020 -c 2 -a 0 -i 1 -k AGT
+ -t 1.200000000 -s 4 -d -1 -p cbr -e 1000 -c 2 -a 0 -i 2 -k AGT 
- -t 1.200000000 -s 4 -d -1 -p cbr -e 1000 -c 2 -a 0 -i 2 -k AGT
h -t 1.200000000 -s 4 -d -1 -p cbr -e 1000 -c 2 -a 0 -i 2 -k AGT
+ -t 1.200000000 -s 4 -d 11 -p cbr -e 1020 -c 2 -a 0 -i 2 -k RTR 
- -t 1.200000000 -s 4 -d 11 -p cbr -e 1020 -c 2 -a 0 -i 2 -k RTR
h -t 1.200000000 -s 4 -d 11 -p cbr -e 1020 -c 2 -a 0 -i 2 -k RTR
+ -t 1.209800898 -s 11 -d 13 -p cbr -e 1020 -c 2 -a 0 -i 2 -k RTR 
- -t 1.209800898 -s 11 -d 13 -p cbr -e 1020 -c 2 -a 0 -i 2 -k RTR
h -t 1.209800898 -s 11 -d 13 -p cbr -e 1020 -c 2 -a 0 -i 2 -k RTR
+ -t 1.219586919 -s 13 -d 20 -p cbr -e 1020 -c 2 -a 0 -i 2 -k RTR 
- -t 1.219586919 -s 13 -d 20 -p cbr -e 1020 -c 2 -a 0 -i 2 -k RTR
h -t 1.219586919 -s 13 -d 20 -p cbr -e 1020 -c 2 -a 0 -i 2 -k RTR
r -t 1.229472228 -s 20 -d 20 -p cbr -e 1020 -c 2 -a 0 -i 2 -k AGT
+ -t 1.300000000 -s 4 -d -1 -p cbr -e 1000 -c 2 -a 0 -i 3 -k AGT 
- -t 1.300000000 -s 4 -d -1 -p cbr -e 1000 -c 2 -a 0 -i 3 -k AGT
h -t 1.300000000 -s 4 -d -1 -p cbr -e 1000 -c 2 -a 0 -i 3 -k AGT
+ -t 1.300000000 -s 4 -d 11 -p cbr -e 1020 -c 2 -a 0 -i 3 -k RTR 
- -t 1.300000000 -s 4 -d 11 -p cbr -e 1020 -c 2 -a 0 -i 3 -k RTR
h -t 1.300000000 -s 4 -d 11 -p cbr -e 1020 -c 2 -a 0 -i 3 -k RTR
+ -t 1.309760883 -s 11 -d 13 -p cbr -e 1020 -c 2 -a 0 -i 3 -k RTR 
- -t 1.309760883 -s 11 -d 13 -p cbr -e 1020 -c 2 -a 0 -i 3 -k RTR
h -t 1.309760883 -s 11 -d 13 -p cbr -e 1020 -c 2 -a 0 -i 3 -k RTR
+ -t 1.319746871 -s 13 -d 20 -p cbr -e 1020 -c 2 -a 0 -i 3 -k RTR 
- -t 1.319746871 -s 13 -d 20 -p cbr -e 1020 -c 2 -a 0 -i 3 -k RTR
h -t 1.319746871 -s 13 -d 20 -p cbr -e 1020 -c 2 -a 0 -i 3 -k RTR
r -t 1.329912177 -s 20 -d 20 -p cbr -e 1020 -c 2 -a 0 -i 3 -k AGT
+ -t 1.400000000 -s 4 -d -1 -p cbr -e 1000 -c 2 -a 0 -i 4 -k AGT 
- -t 1.400000000 -s 4 -d -1 -p cbr -e 1000 -c 2 -a 0 -i 4 -k AGT
h -t 1.400000000 -s 4 -d -1 -p cbr -e 1000 -c 2 -a 0 -i 4 -k AGT
+ -t 1.400000000 -s 4 -d 11 -p cbr -e 1020 -c 2 -a 0 -i 4 -k RTR 
- -t 1.400000000 -s 4 -d 11 -p cbr -e 1020 -c 2 -a 0 -i 4 -k RTR
h -t 1.400000000 -s 4 -d 11 -p cbr -e 1020 -c 2 -a 0 -i 4 -k RTR
+ -t 1.409420871 -s 11 -d 13 -p cbr -e 1020 -c 2 -a 0 -i 4 -k RTR 
- -t 1.409420871 -s 11 -d 13 -p cbr -e 1020 -c 2 -a 0 -i 4 -k RTR
h -t 1.409420871 -s 11 -d 13 -p cbr -e 1020 -c 2 -a 0 -i 4 -k RTR
+ -t 1.419346825 -s 13 -d 20 -p cbr -e 1020 -c 2 -a 0 -i 4 -k RTR 
- -t 1.419346825 -s 13 -d 20 -p cbr -e 1020 -c 2 -a 0 -i 4 -k RTR
h -t 1.419346825 -s 13 -d 20 -p cbr -e 1020 -c 2 -a 0 -i 4 -k RTR
r -t 1.429012129 -s 20 -d 20 -p cbr -e 1020 -c 2 -a 0 -i 4 -k AGT
+ -t 1.500000000 -s 4 -d -1 -p cbr -e 1000 -c 2 -a 0 -i 5 -k AGT 
- -t 1.500000000 -s 4 -d -1 -p cbr -e 1000 -c 2 -a 0 -i 5 -k AGT
h -t 1.500000000 -s 4 -d -1 -p cbr -e 1000 -c 2 -a 0 -i 5 -k AGT
+ -t 1.500000000 -s 4 -d 11 -p cbr -e 1020 -c 2 -a 0 -i 5 -k RTR 
- -t 1.500000000 -s 4 -d 11 -p cbr -e 1020 -c 2 -a 0 -i 5 -k RTR
h -t 1.500000000 -s 4 -d 11 -p cbr -e 1020 -c 2 -a 0 -i 5 -k RTR
+ -t 1.510000863 -s 11 -d 13 -p cbr -e 1020 -c 2 -a 0 -i 5 -k RTR 
- -t 1.510000863 -s 11 -d 13 -p cbr -e 1020 -c 2 -a 0 -i 5 -k RTR
h -t 1.510000863 -s 11 -d 13 -p cbr -e 1020 -c 2 -a 0 -i 5 -k RTR
+ -t 1.520086782 -s 13 -d 20 -p cbr -e 1020 -c 2 -a 0 -i 5 -k RTR 
- -t 1.520086782 -s 13 -d 20 -p cbr -e 1020 -c 2 -a 0 -i 5 -k RTR
h -t 1.520086782 -s 13 -d 20 -p cbr -e 1020 -c 2 -a 0 -i 5 -k RTR
r -t 1.529772084 -s 20 -d 20 -p cbr -e 1020 -c 2 -a 0 -i 5 -k AGT
+ -t 1.600000000 -s 4 -d -1 -p cbr -e 1000 -c 2 -a 0 -i 6 -k AGT 
- -t 1.600000000 -s 4 -d -1 -p cbr -e 1000 -c 2 -a 0 -i 6 -k AGT
h -t 1.600000000 -s 4 -d -1 -p cbr -e 1000 -c 2 -a 0 -i 6 -k AGT
+ -t 1.600000000 -s 4 -d 11 -p cbr -e 1020 -c 2 -a 0 -i 6 -k RTR 
- -t 1.600000000 -s 4 -d 11 -p cbr -e 1020 -c 2 -a 0 -i 6 -k RTR
h -t 1.600000000 -s 4 -d 11 -p cbr -e 1020 -c 2 -a 0 -i 6 -k RTR
+ -t 1.609420857 -s 11 -d 13 -p cbr -e 1020 -c 2 -a 0 -i 6 -k RTR 
- -t 1.609420857 -s 11 -d 13 -p cbr -e 1020 -c 2 -a 0 -i 6 -k RTR
h -t 1.609420857 -s 11 -d 13 -p cbr -e 1020 -c 2 -a 0 -i 6 -k RTR
+ -t 1.619106743 -s 13 -d 20 -p cbr -e 1020 -c 2 -a 0 -i 6 -k RTR 
- -t 1.619106743 -s 13 -d 20 -p cbr -e 1020 -c 2 -a 0 -i 6 -k RTR
h -t 1.619106743 -s 13 -d 20 -p cbr -e 1020 -c 2 -a 0 -i 6 -k RTR
r -t 1.629212033 -s 20 -d 20 -p cbr -e 1020 -c 2 -a 0 -i 6 -k AGT
+ -t 1.700000000 -s 4 -d -1 -p cbr -e 1000 -c 2 -a 0 -i 7 -k AGT 
- -t 1.700000000 -s 4 -d -1 -p cbr -e 1000 -c 2 -a 0 -i 7 -k AGT
h -t 1.700000000 -s 4 -d -1 -p cbr -e 1000 -c 2 -a 0 -i 7 -k AGT
+ -t 1.700000000 -s 4 -d 11 -p cbr -e 1020 -c 2 -a 0 -i 7 -k RTR 
- -t 1.700000000 -s 4 -d 11 -p cbr -e 1020 -c 2 -a 0 -i 7 -k RTR
h -t 1.700000000 -s 4 -d 11 -p cbr -e 1020 -c 2 -a 0 -i 7 -k RTR
+ -t 1.709720854 -s 11 -d 13 -p cbr -e 1020 -c 2 -a 0 -i 7 -k RTR 
- -t 1.709720854 -s 11 -d 13 -p cbr -e 1020 -c 2 -a 0 -i 7 -k RTR
h -t 1.709720854 -s 11 -d 13 -p cbr -e 1020 -c 2 -a 0 -i 7 -k RTR
+ -t 1.719566707 -s 13 -d 20 -p cbr -e 1020 -c 2 -a 0 -i 7 -k RTR 
- -t 1.719566707 -s 13 -d 20 -p cbr -e 1020 -c 2 -a 0 -i 7 -k RTR
h -t 1.719566707 -s 13 -d 20 -p cbr -e 1020 -c 2 -a 0 -i 7 -k RTR
r -t 1.729411983 -s 20 -d 20 -p cbr -e 1020 -c 2 -a 0 -i 7 -k AGT
+ -t 1.800000000 -s 4 -d -1 -p cbr -e 1000 -c 2 -a 0 -i 8 -k AGT 
- -t 1.800000000 -s 4 -d -1 -p cbr -e 1000 -c 2 -a 0 -i 8 -k AGT
h -t 1.800000000 -s 4 -d -1 -p cbr -e 1000 -c 2 -a 0 -i 8 -k AGT
+ -t 1.800000000 -s 4 -d 11 -p cbr -e 1020 -c 2 -a 0 -i 8 -k RTR 
- -t 1.800000000 -s 4 -d 11 -p cbr -e 1020 -c 2 -a 0 -i 8 -k RTR
h -t 1.800000000 -s 4 -d 11 -p cbr -e 1020 -c 2 -a 0 -i 8 -k RTR
+ -t 1.809400854 -s 11 -d 13 -p cbr -e 1020 -c 2 -a 0 -i 8 -k RTR 
- -t 1.809400854 -s 11 -d 13 -p cbr -e 1020 -c 2 -a 0 -i 8 -k RTR
h -t 1.809400854 -s 11 -d 13 -p cbr -e 1020 -c 2 -a 0 -i 8 -k RTR
+ -t 1.819166675 -s 13 -d 20 -p cbr -e 1020 -c 2 -a 0 -i 8 -k RTR 
- -t 1.819166675 -s 13 -d 20 -p cbr -e 1020 -c 2 -a 0 -i 8 -k RTR
h -t 1.819166675 -s 13 -d 20 -p cbr -e 1020 -c 2 -a 0 -i 8 -k RTR
r -t 1.829371938 -s 20 -d 20 -p cbr -e 1020 -c 2 -a 0 -i 8 -k AGT
+ -t 1.900000000 -s 4 -d -1 -p cbr -e 1000 -c 2 -a 0 -i 9 -k AGT 
- -t 1.900000000 -s 4 -d -1 -p cbr -e 1000 -c 2 -a 0 -i 9 -k AGT
h -t 1.900000000 -s 4 -d -1 -p cbr -e 1000 -c 2 -a 0 -i 9 -k AGT
+ -t 1.900000000 -s 4 -d 11 -p cbr -e 1020 -c 2 -a 0 -i 9 -k RTR 
- -t 1.900000000 -s 4 -d 11 -p cbr -e 1020 -c 2 -a 0 -i 9 -k RTR
h -t 1.900000000 -s 4 -d 11 -p cbr -e 1020 -c 2 -a 0 -i 9 -k RTR
+ -t 1.909980858 -s 11 -d 13 -p cbr -e 1020 -c 2 -a 0 -i 9 -k RTR 
- -t 1.909980858 -s 11 -d 13 -p cbr -e 1020 -c 2 -a 0 -i 9 -k RTR
h -t 1.909980858 -s 11 -d 13 -p cbr -e 1020 -c 2 -a 0 -i 9 -k RTR
+ -t 1.919866645 -s 13 -d 20 -p cbr -e 1020 -c 2 -a 0 -i 9 -k RTR 
- -t 1.919866645 -s 13 -d 20 -p cbr -e 1020 -c 2 -a 0 -i 9 -k RTR
h -t 1.919866645 -s 13 -d 20 -p cbr -e 1020 -c 2 -a 0 -i 9 -k RTR
r -t 1.929671897 -s 20 -d 20 -p cbr -e 1020 -c 2 -a 0 -i 9 -k AGT
+ -t 2.000000000 -s 4 -d -1 -p cbr -e 1000 -c 2 -a 0 -i 10 -k AGT 
- -t 2.000000000 -s 4 -d -1 -p cbr -e 1000 -c 2 -a 0 -i 10 -k AGT
h -t 2.000000000 -s 4 -d -1 -p cbr -e 1000 -c 2 -a 0 -i 10 -k AGT
+ -t 2.000000000 -s 4 -d 11 -p cbr -e 1020 -c 2 -a 0 -i 10 -k RTR 
- -t 2.000000000 -s 4 -d 11 -p cbr -e 1020 -c 2 -a 0 -i 10 -k RTR
h -t 2.000000000 -s 4 -d 11 -p cbr -e 1020 -c 2 -a 0 -i 10 -k RTR
+ -t 2.009500864 -s 11 -d 13 -p cbr -e 1020 -c 2 -a 0 -i 10 -k RTR 
- -t 2.009500864 -s 11 -d 13 -p cbr -e 1020 -c 2 -a 0 -i 10 -k RTR
h -t 2.009500864 -s 11 -d 13 -p cbr -e 1020 -c 2 -a 0 -i 10 -k RTR
+ -t 2.019346619 -s 13 -d 20 -p cbr -e 1020 -c 2 -a 0 -i 10 -k RTR 
- -t 2.019346619 -s 13 -d 20 -p cbr -e 1020 -c 2 -a 0 -i 10 -k RTR
h -t 2.019346619 -s 13 -d 20 -p cbr -e 1020 -c 2 -a 0 -i 10 -k RTR
r -t 2.029391861 -s 20 -d 20 -p cbr -e 1020 -c 2 -a 0 -i 10 -k AGT
+ -t 2.100000000 -s 4 -d -1 -p cbr -e 1000 -c 2 -a 0 -i 11 -k AGT 
- -t 2.100000000 -s 4 -d -1 -p cbr -e 1000 -c 2 -a 0 -i 11 -k AGT
h -t 2.100000000 -s 4 -d -1 -p cbr -e 1000 -c 2 -a 0 -i 11 -k AGT
+ -t 2.100000000 -s 4 -d 11 -p cbr -e 1020 -c 2 -a 0 -i 11 -k RTR 
- -t 2.100000000 -s 4 -d 11 -p cbr -e 1020 -c 2 -a 0 -i 11 -k RTR
h -t 2.100000000 -s 4 -d 11 -p cbr -e 1020 -c 2 -a 0 -i 11 -k RTR
+ -t 2.109400874 -s 11 -d 13 -p cbr -e 1020 -c 2 -a 0 -i 11 -k RTR 
- -t 2.109400874 -s 11 -d 13 -p cbr -e 1020 -c 2 -a 0 -i 11 -k RTR
h -t 2.109400874 -s 11 -d 13 -p cbr -e 1020 -c 2 -a 0 -i 11 -k RTR
+ -t 2.119186596 -s 13 -d 20 -p cbr -e 1020 -c 2 -a 0 -i 11 -k RTR 
- -t 2.119186596 -s 13 -d 20 -p cbr -e 1020 -c 2 -a 0 -i 11 -k RTR
h -t 2.119186596 -s 13 -d 20 -p cbr -e 1020 -c 2 -a 0 -i 11 -k RTR
r -t 2.129011830 -s 20 -d 20 -p cbr -e 1020 -c 2 -a 0 -i 11 -k AGT
+ -t 2.200000000 -s 4 -d -1 -p cbr -e 1000 -c 2 -a 0 -i 12 -k AGT 
- -t 2.200000000 -s 4 -d -1 -p cbr -e 1000 -c 2 -a 0 -i 12 -k AGT
h -t 2.200000000 -s 4 -d -1 -p cbr -e 1000 -c 2 -a 0 -i 12 -k AGT
+ -t 2.200000000 -s 4 -d 11 -p cbr -e 1020 -c 2 -a 0 -i 12 -k RTR 
- -t 2.200000000 -s 4 -d 11 -p cbr -e 1020 -c 2 -a 0 -i 12 -k RTR
h -t 2.200000000 -s 4 -d 11 -p cbr -e 1020 -c 2 -a 0 -i 12 -k RTR
+ -t 2.209540886 -s 11 -d 13 -p cbr -e 1020 -c 2 -a 0 -i 12 -k RTR 
- -t 2.209540886 -s 11 -d 13 -p cbr -e 1020 -c 2 -a 0 -i 12 -k RTR
h -t 2.209540886 -s 11 -d 13 -p cbr -e 1020 -c 2 -a 0 -i 12 -k RTR
+ -t 2.219746577 -s 13 -d 20 -p cbr -e 1020 -c 2 -a 0 -i 12 -k RTR 
- -t 2.219746577 -s 13 -d 20 -p cbr -e 1020 -c 2 -a 0 -i 12 -k RTR
h -t 2.219746577 -s 13 -d 20 -p cbr -e 1020 -c 2 -a 0 -i 12 -k RTR
r -t 2.229451802 -s 20 -d 20 -p cbr -e 1020 -c 2 -a 0 -i 12 -k AGT
+ -t 2.300000000 -s 4 -d -1 -p cbr -e 1000 -c 2 -a 0 -i 13 -k AGT 
- -t 2.300000000 -s 4 -d -1 -p cbr -e 1000 -c 2 -a 0 -i 13 -k AGT
h -t 2.300000000 -s 4 -d -1 -p cbr -e 1000 -c 2 -a 0 -i 13 -k AGT
+ -t 2.300000000 -s 4 -d 11 -p cbr -e 1020 -c 2 -a 0 -i 13 -k RTR 
- -t 2.300000000 -s 4 -d 11 -p cbr -e 1020 -c 2 -a 0 -i 13 -k RTR
h -t 2.300000000 -s 4 -d 11 -p cbr -e 1020 -c 2 -a 0 -i 13 -k RTR
+ -t 2.309400902 -s 11 -d 13 -p cbr -e 1020 -c 2 -a 0 -i 13 -k RTR 
- -t 2.309400902 -s 11 -d 13 -p cbr -e 1020 -c 2 -a 0 -i 13 -k RTR
h -t 2.309400902 -s 11 -d 13 -p cbr -e 1020 -c 2 -a 0 -i 13 -k RTR
+ -t 2.319146560 -s 13 -d 20 -p cbr -e 1020 -c 2 -a 0 -i 13 -k RTR 
- -t 2.319146560 -s 13 -d 20 -p cbr -e 1020 -c 2 -a 0 -i 13 -k RTR
h -t 2.319146560 -s 13 -d 20 -p cbr -e 1020 -c 2 -a 0 -i 13 -k RTR
r -t 2.329111779 -s 20 -d 20 -p cbr -e 1020 -c 2 -a 0 -i 13 -k AGT
+ -t 2.400000000 -s 4 -d -1 -p cbr -e 1000 -c 2 -a 0 -i 14 -k AGT 
- -t 2.400000000 -s 4 -d -1 -p cbr -e 1000 -c 2 -a 0 -i 14 -k AGT
h -t 2.400000000 -s 4 -d -1 -p cbr -e 1000 -c 2 -a 0 -i 14 -k AGT
+ -t 2.400000000 -s 4 -d 11 -p cbr -e 1020 -c 2 -a 0 -i 14 -k RTR 
- -t 2.400000000 -s 4 -d 11 -p cbr -e 1020 -c 2 -a 0 -i 14 -k RTR
h -t 2.400000000 -s 4 -d 11 -p cbr -e 1020 -c 2 -a 0 -i 14 -k RTR
+ -t 2.409880920 -s 11 -d 13 -p cbr -e 1020 -c 2 -a 0 -i 14 -k RTR 
- -t 2.409880920 -s 11 -d 13 -p cbr -e 1020 -c 2 -a 0 -i 14 -k RTR
h -t 2.409880920 -s 11 -d 13 -p cbr -e 1020 -c 2 -a 0 -i 14 -k RTR
+ -t 2.419586547 -s 13 -d 20 -p cbr -e 1020 -c 2 -a 0 -i 14 -k RTR 
- -t 2.419586547 -s 13 -d 20 -p cbr -e 1020 -c 2 -a 0 -i 14 -k RTR
h -t 2.419586547 -s 13 -d 20 -p cbr -e 1020 -c 2 -a 0 -i 14 -k RTR
r -t 2.429751761 -s 20 -d 20 -p cbr -e 1020 -c 2 -a 0 -i 14 -k AGT
+ -t 2.500000000 -s 4 -d -1 -p cbr -e 1000 -c 2 -a 0 -i 15 -k AGT 
- -t 2.500000000 -s 4 -d -1 -p cbr -e 1000 -c 2 -a 0 -i 15 -k AGT
h -t 2.500000000 -s 4 -d -1 -p cbr -e 1000 -c 2 -a 0 -i 15 -k AGT
+ -t 2.500000000 -s 4 -d 11 -p cbr -e 1020 -c 2 -a 0 -i 15 -k RTR 
- -t 2.500000000 -s 4 -d 11 -p cbr -e 1020 -c 2 -a 0 -i 15 -k RTR
h -t 2.500000000 -s 4 -d 11 -p cbr -e 1020 -c 2 -a 0 -i 15 -k RTR