v 0.01 eval {set sim_annotation {Network Deployment}}
M 0.10000 0 (949.69, 314.42, 0.00), (761.57, 540.78), 40.00
M 0.10000 1 (663.74, 415.63, 0.00), (90.65, 476.90), 40.00
M 0.10000 2 (966.91, 746.48, 0.00), (971.59, 351.31), 40.00
M 0.10000 3 (591.18, 758.20, 0.00), (671.76, 195.29), 40.00
M 0.10000 4 (907.28, 553.56, 0.00), (786.50, 589.08), 40.00
M 0.10000 5 (658.94, 631.02, 0.00), (812.38, 587.61), 40.00
M 0.10000 6 (954.68, 214.28, 0.00), (848.18, 334.98), 40.00
M 0.10000 7 (825.46, 390.76, 0.00), (485.08, 630.95), 40.00
M 0.10000 8 (415.53, 674.89, 0.00), (383.59, 782.12), 40.00
M 0.10000 9 (681.02, 673.27, 0.00), (346.27, 548.02), 40.00
M 0.10000 10 (492.45, 533.66, 0.00), (121.99, 255.74), 40.00
M 0.10000 11 (559.48, 116.11, 0.00), (803.62, 401.38), 40.00
M 0.10000 12 (282.14, 796.64, 0.00), (494.06, 488.85), 40.00
M 0.10000 13 (474.52, 212.05, 0.00), (201.94, 755.49), 40.00
M 0.10000 14 (961.90, 462.08, 0.00), (805.67, 709.30), 40.00
M 0.10000 15 (773.13, 773.42, 0.00), (425.52, 527.32), 40.00
M 0.10000 16 (543.51, 652.81, 0.00), (421.09, 176.49), 40.00
M 0.10000 17 (752.76, 444.60, 0.00), (765.15, 684.39), 40.00
M 0.10000 18 (535.19, 756.30, 0.00), (156.54, 1.13), 40.00
M 0.10000 19 (891.33, 468.00, 0.00), (814.54, 753.99), 40.00
M 0.10000 20 (92.74, 573.60, 0.00), (455.09, 545.42), 40.00
M 0.10000 21 (716.64, 489.38, 0.00), (583.26, 744.60), 40.00
M 0.10000 22 (349.32, 761.10, 0.00), (133.85, 490.80), 40.00
M 0.10000 23 (667.86, 624.74, 0.00), (182.17, 552.52), 40.00
M 0.10000 24 (981.38, 88.62, 0.00), (748.01, 626.00), 40.00
s 1.000000000 _4_ AGT  --- 0 cbr 1000 [0 0 0 0] [energy 100.000000 ei 0.000 es 0.000 et 0.000 er 0.000] ------- [4:0 20:0 32 0] [0] 0 0
r 1.000000000 _4_ RTR  --- 0 cbr 1000 [0 0 0 0] [energy 100.000000 ei 0.000 es 0.000 et 0.000 er 0.000] ------- [4:0 20:0 32 0] [0] 0 0
s 1.000000000 _4_ RTR  --- 0 AODV 48 [0 0 0 0] [energy 100.000000 ei 0.000 es 0.000 et 0.000 er 0.000] ------- [4:255 -1:255 30 0] [0x2 1 1 [20 0] [4 4]] (REQUEST)
N -t 1.000535 -n 19 -e 99.999746
N -t 1.000535 -n 14 -e 99.999746
N -t 1.000535 -n 17 -e 99.999746
N -t 1.000536 -n 7 -e 99.999746
N -t 1.000536 -n 2 -e 99.999746
N -t 1.000536 -n 21 -e 99.999746
N -t 1.000536 -n 5 -e 99.999746
N -t 1.000536 -n 0 -e 99.999746
N -t 1.000536 -n 15 -e 99.999746
N -t 1.000536 -n 9 -e 99.999746
N -t 1.000536 -n 23 -e 99.999746
N -t 1.000536 -n 1 -e 99.999746
N -t 1.000536 -n 3 -e 99.999746
N -t 1.000536 -n 6 -e 99.999746
N -t 1.000536 -n 16 -e 99.999746
N -t 1.000536 -n 18 -e 99.999746
N -t 1.000536 -n 10 -e 99.999746
N -t 1.000537 -n 24 -e 99.999746
N -t 1.000537 -n 8 -e 99.999746
N -t 1.000537 -n 11 -e 99.999746
N -t 1.000537 -n 13 -e 99.999746
r 1.001408205 _19_ RTR  --- 0 AODV 48 [0 ffffffff 4 800] [energy 99.999746 ei 0.000 es 0.000 et 0.000 er 0.000] ------- [4:255 -1:255 30 0] [0x2 1 1 [20 0] [4 4]] (REQUEST)
r 1.001408333 _14_ RTR  --- 0 AODV 48 [0 ffffffff 4 800] [energy 99.999746 ei 0.000 es 0.000 et 0.000 er 0.000] ------- [4:255 -1:255 30 0] [0x2 1 1 [20 0] [4 4]] (REQUEST)
r 1.001408481 _17_ RTR  --- 0 AODV 48 [0 ffffffff 4 800] [energy 99.999746 ei 0.000 es 0.000 et 0.000 er 0.000] ------- [4:255 -1:255 30 0] [0x2 1 1 [20 0] [4 4]] (REQUEST)
r 1.001408568 _7_ RTR  --- 0 AODV 48 [0 ffffffff 4 800] [energy 99.999746 ei 0.000 es 0.000 et 0.000 er 0.000] ------- [4:255 -1:255 30 0] [0x2 1 1 [20 0] [4 4]] (REQUEST)
r 1.001408582 _2_ RTR  --- 0 AODV 48 [0 ffffffff 4 800] [energy 99.999746 ei 0.000 es 0.000 et 0.000 er 0.000] ------- [4:255 -1:255 30 0] [0x2 1 1 [20 0] [4 4]] (REQUEST)
r 1.001408593 _21_ RTR  --- 0 AODV 48 [0 ffffffff 4 800] [energy 99.999746 ei 0.000 es 0.000 et 0.000 er 0.000] ------- [4:255 -1:255 30 0] [0x2 1 1 [20 0] [4 4]] (REQUEST)
r 1.001408627 _5_ RTR  --- 0 AODV 48 [0 ffffffff 4 800] [energy 99.999746 ei 0.000 es 0.000 et 0.000 er 0.000] ------- [4:255 -1:255 30 0] [0x2 1 1 [20 0] [4 4]] (REQUEST)
r 1.001408760 _0_ RTR  --- 0 AODV 48 [0 ffffffff 4 800] [energy 99.999746 ei 0.000 es 0.000 et 0.000 er 0.000] ------- [4:255 -1:255 30 0] [0x2 1 1 [20 0] [4 4]] (REQUEST)
r 1.001408762 _15_ RTR  --- 0 AODV 48 [0 ffffffff 4 800] [energy 99.999746 ei 0.000 es 0.000 et 0.000 er 0.000] ------- [4:255 -1:255 30 0] [0x2 1 1 [20 0] [4 4]] (REQUEST)
r 1.001408818 _9_ RTR  --- 0 AODV 48 [0 ffffffff 4 800] [energy 99.999746 ei 0.000 es 0.000 et 0.000 er 0.000] ------- [4:255 -1:255 30 0] [0x2 1 1 [20 0] [4 4]] (REQUEST)
r 1.001408823 _23_ RTR  --- 0 AODV 48 [0 ffffffff 4 800] [energy 99.999746 ei 0.000 es 0.000 et 0.000 er 0.000] ------- [4:255 -1:255 30 0] [0x2 1 1 [20 0] [4 4]] (REQUEST)
s 1.001550252 _19_ RTR  --- 0 AODV 48 [0 ffffffff 4 800] [energy 99.999746 ei 0.000 es 0.000 et 0.000 er 0.000] ------- [19:255 -1:255 29 0] [0x2 2 1 [20 0] [4 4]] (REQUEST)
N -t 1.002165 -n 14 -e 99.999491
N -t 1.002165 -n 4 -e 99.999237
N -t 1.002166 -n 7 -e 99.999491
N -t 1.002166 -n 17 -e 99.999491
N -t 1.002166 -n 0 -e 99.999491
N -t 1.002166 -n 21 -e 99.999491
N -t 1.002166 -n 5 -e 99.999491
N -t 1.002166 -n 2 -e 99.999491
N -t 1.002166 -n 6 -e 99.999491
N -t 1.002166 -n 1 -e 99.999491
N -t 1.002166 -n 23 -e 99.999491
N -t 1.002166 -n 9 -e 99.999491
N -t 1.002166 -n 15 -e 99.999491
N -t 1.002166 -n 3 -e 99.999491
N -t 1.002166 -n 16 -e 99.999491
N -t 1.002167 -n 24 -e 99.999491
N -t 1.002167 -n 10 -e 99.999491
N -t 1.002167 -n 18 -e 99.999491
N -t 1.002167 -n 11 -e 99.999491
N -t 1.002167 -n 13 -e 99.999491
N -t 1.002167 -n 8 -e 99.999491
s 1.002289559 _14_ RTR  --- 0 AODV 48 [0 ffffffff 4 800] [energy 99.999491 ei 0.000 es 0.000 et 0.000 er 0.001] ------- [14:255 -1:255 29 0] [0x2 2 1 [20 0] [4 4]] (REQUEST)
r 1.003038457 _14_ RTR  --- 0 AODV 48 [0 ffffffff 13 800] [energy 99.999491 ei 0.000 es 0.000 et 0.000 er 0.001] ------- [19:255 -1:255 29 0] [0x2 2 1 [20 0] [4 4]] (REQUEST)
r 1.003038457 _4_ RTR  --- 0 AODV 48 [0 ffffffff 13 800] [energy 99.999237 ei 0.000 es 0.000 et 0.001 er 0.000] ------- [19:255 -1:255 29 0] [0x2 2 1 [20 0] [4 4]] (REQUEST)
r 1.003038670 _7_ RTR  --- 0 AODV 48 [0 ffffffff 13 800] [energy 99.999491 ei 0.000 es 0.000 et 0.000 er 0.001] ------- [19:255 -1:255 29 0] [0x2 2 1 [20 0] [4 4]] (REQUEST)
r 1.003038683 _17_ RTR  --- 0 AODV 48 [0 ffffffff 13 800] [energy 99.999491 ei 0.000 es 0.000 et 0.000 er 0.001] ------- [19:255 -1:255 29 0] [0x2 2 1 [20 0] [4 4]] (REQUEST)
r 1.003038808 _0_ RTR  --- 0 AODV 48 [0 ffffffff 13 800] [energy 99.999491 ei 0.000 es 0.000 et 0.000 er 0.001] ------- [19:255 -1:255 29 0] [0x2 2 1 [20 0] [4 4]] (REQUEST)
r 1.003038862 _21_ RTR  --- 0 AODV 48 [0 ffffffff 13 800] [energy 99.999491 ei 0.000 es 0.000 et 0.000 er 0.001] ------- [19:255 -1:255 29 0] [0x2 2 1 [20 0] [4 4]] (REQUEST)
r 1.003038993 _5_ RTR  --- 0 AODV 48 [0 ffffffff 13 800] [energy 99.999491 ei 0.000 es 0.000 et 0.000 er 0.001] ------- [19:255 -1:255 29 0] [0x2 2 1 [20 0] [4 4]] (REQUEST)
r 1.003039000 _2_ RTR  --- 0 AODV 48 [0 ffffffff 13 800] [energy 99.999491 ei 0.000 es 0.000 et 0.000 er 0.001] ------- [19:255 -1:255 29 0] [0x2 2 1 [20 0] [4 4]] (REQUEST)
s 1.003050277 _23_ RTR  --- 0 AODV 48 [0 ffffffff 4 800] [energy 99.999491 ei 0.000 es 0.000 et 0.000 er 0.001] ------- [23:255 -1:255 29 0] [0x2 2 1 [20 0] [4 4]] (REQUEST)
N -t 1.003224 -n 19 -e 99.998982
N -t 1.003224 -n 4 -e 99.998982
N -t 1.003224 -n 0 -e 99.999237
N -t 1.003224 -n 7 -e 99.999237
N -t 1.003224 -n 17 -e 99.999237
N -t 1.003224 -n 2 -e 99.999237
N -t 1.003224 -n 21 -e 99.999237
N -t 1.003224 -n 6 -e 99.999237
N -t 1.003224 -n 5 -e 99.999237
N -t 1.003225 -n 1 -e 99.999237
N -t 1.003225 -n 15 -e 99.999237
N -t 1.003225 -n 23 -e 99.999237
N -t 1.003225 -n 9 -e 99.999237
N -t 1.003225 -n 24 -e 99.999237
N -t 1.003225 -n 3 -e 99.999237
N -t 1.003225 -n 16 -e 99.999237
N -t 1.003225 -n 10 -e 99.999237
N -t 1.003225 -n 18 -e 99.999237
N -t 1.003225 -n 11 -e 99.999237
N -t 1.003225 -n 13 -e 99.999237
s 1.003754645 _5_ RTR  --- 0 AODV 48 [0 ffffffff 4 800] [energy 99.999237 ei 0.000 es 0.000 et 0.000 er 0.001] ------- [5:255 -1:255 29 0] [0x2 2 1 [20 0] [4 4]] (REQUEST)
r 1.004096662 _19_ RTR  --- 0 AODV 48 [0 ffffffff e 800] [energy 99.998982 ei 0.000 es 0.000 et 0.001 er 0.001] ------- [14:255 -1:255 29 0] [0x2 2 1 [20 0] [4 4]] (REQUEST)
r 1.004096790 _4_ RTR  --- 0 AODV 48 [0 ffffffff e 800] [energy 99.998982 ei 0.000 es 0.000 et 0.001 er 0.001] ------- [14:255 -1:255 29 0] [0x2 2 1 [20 0] [4 4]] (REQUEST)
r 1.004096961 _0_ RTR  --- 0 AODV 48 [0 ffffffff e 800] [energy 99.999237 ei 0.000 es 0.000 et 0.000 er 0.001] ------- [14:255 -1:255 29 0] [0x2 2 1 [20 0] [4 4]] (REQUEST)
r 1.004097016 _7_ RTR  --- 0 AODV 48 [0 ffffffff e 800] [energy 99.999237 ei 0.000 es 0.000 et 0.000 er 0.001] ------- [14:255 -1:255 29 0] [0x2 2 1 [20 0] [4 4]] (REQUEST)
r 1.004097085 _17_ RTR  --- 0 AODV 48 [0 ffffffff e 800] [energy 99.999237 ei 0.000 es 0.000 et 0.000 er 0.001] ------- [14:255 -1:255 29 0] [0x2 2 1 [20 0] [4 4]] (REQUEST)
r 1.004097188 _2_ RTR  --- 0 AODV 48 [0 ffffffff e 800] [energy 99.999237 ei 0.000 es 0.000 et 0.000 er 0.001] ------- [14:255 -1:255 29 0] [0x2 2 1 [20 0] [4 4]] (REQUEST)
r 1.004097272 _21_ RTR  --- 0 AODV 48 [0 ffffffff e 800] [energy 99.999237 ei 0.000 es 0.000 et 0.000 er 0.001] ------- [14:255 -1:255 29 0] [0x2 2 1 [20 0] [4 4]] (REQUEST)
s 1.004499553 _15_ RTR  --- 0 AODV 48 [0 ffffffff 4 800] [energy 99.999237 ei 0.000 es 0.000 et 0.000 er 0.001] ------- [15:255 -1:255 29 0] [0x2 2 1 [20 0] [4 4]] (REQUEST)
s 1.004538200 _2_ RTR  --- 0 AODV 48 [0 ffffffff 4 800] [energy 99.999237 ei 0.000 es 0.000 et 0.000 er 0.001] ------- [2:255 -1:255 29 0] [0x2 2 1 [20 0] [4 4]] (REQUEST)
N -t 1.004647 -n 9 -e 99.998982
N -t 1.004647 -n 23 -e 99.998982
N -t 1.004647 -n 21 -e 99.998982
N -t 1.004647 -n 15 -e 99.998982
N -t 1.004647 -n 3 -e 99.998982
N -t 1.004647 -n 17 -e 99.998982
N -t 1.004647 -n 16 -e 99.998982
N -t 1.004647 -n 4 -e 99.998728
N -t 1.004647 -n 18 -e 99.998982
N -t 1.004647 -n 1 -e 99.998982
N -t 1.004647 -n 19 -e 99.998728
N -t 1.004647 -n 7 -e 99.998982
N -t 1.004647 -n 10 -e 99.998982
N -t 1.004647 -n 14 -e 99.998728
N -t 1.004647 -n 2 -e 99.998982
N -t 1.004647 -n 8 -e 99.999237
N -t 1.004648 -n 0 -e 99.998982
N -t 1.004648 -n 22 -e 99.999746
N -t 1.004648 -n 12 -e 99.999746
N -t 1.004648 -n 13 -e 99.998982
N -t 1.004648 -n 6 -e 99.998982
N -t 1.004648 -n 11 -e 99.998982
r 1.005519594 _9_ RTR  --- 0 AODV 48 [0 ffffffff 5 800] [energy 99.998982 ei 0.000 es 0.000 et 0.000 er 0.001] ------- [5:255 -1:255 29 0] [0x2 2 1 [20 0] [4 4]] (REQUEST)
r 1.005519597 _23_ RTR  --- 0 AODV 48 [0 ffffffff 5 800] [energy 99.998982 ei 0.000 es 0.000 et 0.000 er 0.001] ------- [5:255 -1:255 29 0] [0x2 2 1 [20 0] [4 4]] (REQUEST)
r 1.005519724 _21_ RTR  --- 0 AODV 48 [0 ffffffff 5 800] [energy 99.998982 ei 0.000 es 0.000 et 0.000 er 0.001] ------- [5:255 -1:255 29 0] [0x2 2 1 [20 0] [4 4]] (REQUEST)
r 1.005519859 _15_ RTR  --- 0 AODV 48 [0 ffffffff 5 800] [energy 99.998982 ei 0.000 es 0.000 et 0.000 er 0.001] ------- [5:255 -1:255 29 0] [0x2 2 1 [20 0] [4 4]] (REQUEST)
r 1.005519859 _3_ RTR  --- 0 AODV 48 [0 ffffffff 5 800] [energy 99.998982 ei 0.000 es 0.000 et 0.000 er 0.001] ------- [5:255 -1:255 29 0] [0x2 2 1 [20 0] [4 4]] (REQUEST)
r 1.005519901 _17_ RTR  --- 0 AODV 48 [0 ffffffff 5 800] [energy 99.998982 ei 0.000 es 0.000 et 0.000 er 0.001] ------- [5:255 -1:255 29 0] [0x2 2 1 [20 0] [4 4]] (REQUEST)
r 1.005519922 _16_ RTR  --- 0 AODV 48 [0 ffffffff 5 800] [energy 99.998982 ei 0.000 es 0.000 et 0.000 er 0.001] ------- [5:255 -1:255 29 0] [0x2 2 1 [20 0] [4 4]] (REQUEST)
r 1.005520017 _4_ RTR  --- 0 AODV 48 [0 ffffffff 5 800] [energy 99.998728 ei 0.000 es 0.000 et 0.001 er 0.001] ------- [5:255 -1:255 29 0] [0x2 2 1 [20 0] [4 4]] (REQUEST)
r 1.005520067 _18_ RTR  --- 0 AODV 48 [0 ffffffff 5 800] [energy 99.998982 ei 0.000 es 0.000 et 0.000 er 0.001] ------- [5:255 -1:255 29 0] [0x2 2 1 [20 0] [4 4]] (REQUEST)
r 1.005520098 _1_ RTR  --- 0 AODV 48 [0 ffffffff 5 800] [energy 99.998982 ei 0.000 es 0.000 et 0.000 er 0.001] ------- [5:255 -1:255 29 0] [0x2 2 1 [20 0] [4 4]] (REQUEST)
r 1.005520132 _19_ RTR  --- 0 AODV 48 [0 ffffffff 5 800] [energy 99.998728 ei 0.000 es 0.000 et 0.001 er 0.001] ------- [5:255 -1:255 29 0] [0x2 2 1 [20 0] [4 4]] (REQUEST)
r 1.005520168 _7_ RTR  --- 0 AODV 48 [0 ffffffff 5 800] [energy 99.998982 ei 0.000 es 0.000 et 0.000 er 0.001] ------- [5:255 -1:255 29 0] [0x2 2 1 [20 0] [4 4]] (REQUEST)
N -t 1.005625 -n 9 -e 99.998728
N -t 1.005625 -n 5 -e 99.998474
N -t 1.005625 -n 16 -e 99.998728
N -t 1.005625 -n 3 -e 99.998728
N -t 1.005625 -n 21 -e 99.998728
N -t 1.005625 -n 18 -e 99.998728
N -t 1.005625 -n 15 -e 99.998728
N -t 1.005625 -n 17 -e 99.998728
N -t 1.005625 -n 10 -e 99.998728
N -t 1.005625 -n 1 -e 99.998728
N -t 1.005625 -n 8 -e 99.998982
N -t 1.005625 -n 4 -e 99.998474
N -t 1.005625 -n 7 -e 99.998728
N -t 1.005626 -n 19 -e 99.998474
N -t 1.005626 -n 22 -e 99.999491
N -t 1.005626 -n 14 -e 99.998474
N -t 1.005626 -n 2 -e 99.998728
N -t 1.005626 -n 12 -e 99.999491
N -t 1.005626 -n 0 -e 99.998728
N -t 1.005626 -n 13 -e 99.998728
N -t 1.005626 -n 11 -e 99.998728
N -t 1.005626 -n 6 -e 99.998728
N -t 1.005626 -n 20 -e 99.999746
s 1.005820215 _17_ RTR  --- 0 AODV 48 [0 ffffffff 4 800] [energy 99.998728 ei 0.000 es 0.000 et 0.000 er 0.001] ------- [17:255 -1:255 29 0] [0x2 2 1 [20 0] [4 4]] (REQUEST)
r 1.006497743 _9_ RTR  --- 0 AODV 48 [0 ffffffff 17 800] [energy 99.998728 ei 0.000 es 0.000 et 0.000 er 0.001] ------- [23:255 -1:255 29 0] [0x2 2 1 [20 0] [4 4]] (REQUEST)
r 1.006497803 _5_ RTR  --- 0 AODV 48 [0 ffffffff 17 800] [energy 99.998474 ei 0.000 es 0.000 et 0.001 er 0.001] ------- [23:255 -1:255 29 0] [0x2 2 1 [20 0] [4 4]] (REQUEST)
r 1.006497922 _16_ RTR  --- 0 AODV 48 [0 ffffffff 17 800] [energy 99.998728 ei 0.000 es 0.000 et 0.000 er 0.001] ------- [23:255 -1:255 29 0] [0x2 2 1 [20 0] [4 4]] (REQUEST)
r 1.006497960 _3_ RTR  --- 0 AODV 48 [0 ffffffff 17 800] [energy 99.998728 ei 0.000 es 0.000 et 0.000 er 0.001] ------- [23:255 -1:255 29 0] [0x2 2 1 [20 0] [4 4]] (REQUEST)
r 1.006497994 _21_ RTR  --- 0 AODV 48 [0 ffffffff 17 800] [energy 99.998728 ei 0.000 es 0.000 et 0.000 er 0.001] ------- [23:255 -1:255 29 0] [0x2 2 1 [20 0] [4 4]] (REQUEST)
r 1.006498110 _18_ RTR  --- 0 AODV 48 [0 ffffffff 17 800] [energy 99.998728 ei 0.000 es 0.000 et 0.000 er 0.001] ------- [23:255 -1:255 29 0] [0x2 2 1 [20 0] [4 4]] (REQUEST)
r 1.006498175 _15_ RTR  --- 0 AODV 48 [0 ffffffff 17 800] [energy 99.998728 ei 0.000 es 0.000 et 0.000 er 0.001] ------- [23:255 -1:255 29 0] [0x2 2 1 [20 0] [4 4]] (REQUEST)
r 1.006498213 _17_ RTR  --- 0 AODV 48 [0 ffffffff 17 800] [energy 99.998728 ei 0.000 es 0.000 et 0.000 er 0.001] ------- [23:255 -1:255 29 0] [0x2 2 1 [20 0] [4 4]] (REQUEST)
r 1.006498263 _10_ RTR  --- 0 AODV 48 [0 ffffffff 17 800] [energy 99.998728 ei 0.000 es 0.000 et 0.000 er 0.001] ------- [23:255 -1:255 29 0] [0x2 2 1 [20 0] [4 4]] (REQUEST)
r 1.006498263 _1_ RTR  --- 0 AODV 48 [0 ffffffff 17 800] [energy 99.998728 ei 0.000 es 0.000 et 0.000 er 0.001] ------- [23:255 -1:255 29 0] [0x2 2 1 [20 0] [4 4]] (REQUEST)
r 1.006498410 _8_ RTR  --- 0 AODV 48 [0 ffffffff 17 800] [energy 99.998982 ei 0.000 es 0.000 et 0.000 er 0.001] ------- [23:255 -1:255 29 0] [0x2 2 1 [20 0] [4 4]] (REQUEST)
r 1.006498419 _4_ RTR  --- 0 AODV 48 [0 ffffffff 17 800] [energy 99.998474 ei 0.000 es 0.000 et 0.001 er 0.001] ------- [23:255 -1:255 29 0] [0x2 2 1 [20 0] [4 4]] (REQUEST)
N -t 1.006703 -n 21 -e 99.998474
N -t 1.006703 -n 7 -e 99.998474
N -t 1.006704 -n 19 -e 99.998219
N -t 1.006704 -n 1 -e 99.998474
N -t 1.006704 -n 4 -e 99.998219
N -t 1.006704 -n 5 -e 99.998219
N -t 1.006704 -n 23 -e 99.998219
N -t 1.006704 -n 14 -e 99.998219
N -t 1.006704 -n 9 -e 99.998474
N -t 1.006704 -n 0 -e 99.998474
N -t 1.006704 -n 16 -e 99.998474
N -t 1.006704 -n 15 -e 99.998474
N -t 1.006704 -n 3 -e 99.998474
N -t 1.006704 -n 10 -e 99.998474
N -t 1.006704 -n 6 -e 99.998474
N -t 1.006704 -n 2 -e 99.998474
N -t 1.006704 -n 18 -e 99.998474
N -t 1.006704 -n 11 -e 99.998474
N -t 1.006704 -n 13 -e 99.998474
N -t 1.006705 -n 24 -e 99.998982
N -t 1.006705 -n 8 -e 99.998728
N -t 1.006705 -n 22 -e 99.999237
N -t 1.006705 -n 12 -e 99.999237
r 1.007576441 _21_ RTR  --- 0 AODV 48 [0 ffffffff 11 800] [energy 99.998474 ei 0.000 es 0.000 et 0.000 er 0.002] ------- [17:255 -1:255 29 0] [0x2 2 1 [20 0] [4 4]] (REQUEST)
r 1.007576482 _7_ RTR  --- 0 AODV 48 [0 ffffffff 11 800] [energy 99.998474 ei 0.000 es 0.000 et 0.000 er 0.002] ------- [17:255 -1:255 29 0] [0x2 2 1 [20 0] [4 4]] (REQUEST)
r 1.007576644 _19_ RTR  --- 0 AODV 48 [0 ffffffff 11 800] [energy 99.998219 ei 0.000 es 0.000 et 0.001 er 0.001] ------- [17:255 -1:255 29 0] [0x2 2 1 [20 0] [4 4]] (REQUEST)
r 1.007576683 _1_ RTR  --- 0 AODV 48 [0 ffffffff 11 800] [energy 99.998474 ei 0.000 es 0.000 et 0.000 er 0.002] ------- [17:255 -1:255 29 0] [0x2 2 1 [20 0] [4 4]] (REQUEST)
r 1.007576694 _4_ RTR  --- 0 AODV 48 [0 ffffffff 11 800] [energy 99.998219 ei 0.000 es 0.000 et 0.001 er 0.001] ------- [17:255 -1:255 29 0] [0x2 2 1 [20 0] [4 4]] (REQUEST)
r 1.007576723 _5_ RTR  --- 0 AODV 48 [0 ffffffff 11 800] [energy 99.998219 ei 0.000 es 0.000 et 0.001 er 0.001] ------- [17:255 -1:255 29 0] [0x2 2 1 [20 0] [4 4]] (REQUEST)
r 1.007576830 _23_ RTR  --- 0 AODV 48 [0 ffffffff 11 800] [energy 99.998219 ei 0.000 es 0.000 et 0.001 er 0.001] ------- [17:255 -1:255 29 0] [0x2 2 1 [20 0] [4 4]] (REQUEST)
r 1.007576841 _14_ RTR  --- 0 AODV 48 [0 ffffffff 11 800] [energy 99.998219 ei 0.000 es 0.000 et 0.001 er 0.001] ------- [17:255 -1:255 29 0] [0x2 2 1 [20 0] [4 4]] (REQUEST)
r 1.007576912 _9_ RTR  --- 0 AODV 48 [0 ffffffff 11 800] [energy 99.998474 ei 0.000 es 0.000 et 0.000 er 0.002] ------- [17:255 -1:255 29 0] [0x2 2 1 [20 0] [4 4]] (REQUEST)
r 1.007576949 _0_ RTR  --- 0 AODV 48 [0 ffffffff 11 800] [energy 99.998474 ei 0.000 es 0.000 et 0.000 er 0.002] ------- [17:255 -1:255 29 0] [0x2 2 1 [20 0] [4 4]] (REQUEST)
s 1.007797412 _0_ RTR  --- 0 AODV 48 [0 ffffffff 4 800] [energy 99.998474 ei 0.000 es 0.000 et 0.000 er 0.002] ------- [0:255 -1:255 29 0] [0x2 2 1 [20 0] [4 4]] (REQUEST)
N -t 1.007913 -n 6 -e 99.998219
N -t 1.007913 -n 7 -e 99.998219
N -t 1.007913 -n 14 -e 99.997965
N -t 1.007913 -n 19 -e 99.997965
N -t 1.007913 -n 17 -e 99.997965
N -t 1.007913 -n 24 -e 99.998728
N -t 1.007913 -n 4 -e 99.997965
N -t 1.007913 -n 21 -e 99.998219
N -t 1.007913 -n 1 -e 99.998219
N -t 1.007914 -n 5 -e 99.997965
N -t 1.007914 -n 2 -e 99.998219
N -t 1.007914 -n 11 -e 99.998219
N -t 1.007914 -n 23 -e 99.997965
N -t 1.007914 -n 9 -e 99.998219
N -t 1.007914 -n 15 -e 99.998219
N -t 1.007914 -n 13 -e 99.998219
N -t 1.007914 -n 16 -e 99.998219
N -t 1.007914 -n 10 -e 99.998219
N -t 1.007914 -n 3 -e 99.998219
s 1.008100739 _3_ RTR  --- 0 AODV 48 [0 ffffffff 5 800] [energy 99.998219 ei 0.000 es 0.000 et 0.000 er 0.002] ------- [3:255 -1:255 28 0] [0x2 3 1 [20 0] [4 4]] (REQUEST)
s 1.008670005 _8_ RTR  --- 0 AODV 48 [0 ffffffff 17 800] [energy 99.998728 ei 0.000 es 0.000 et 0.000 er 0.001] ------- [8:255 -1:255 28 0] [0x2 3 1 [20 0] [4 4]] (REQUEST)
r 1.008785748 _6_ RTR  --- 0 AODV 48 [0 ffffffff 0 800] [energy 99.998219 ei 0.000 es 0.000 et 0.000 er 0.002] ------- [0:255 -1:255 29 0] [0x2 2 1 [20 0] [4 4]] (REQUEST)
r 1.008785905 _7_ RTR  --- 0 AODV 48 [0 ffffffff 0 800] [energy 99.998219 ei 0.000 es 0.000 et 0.000 er 0.002] ------- [0:255 -1:255 29 0] [0x2 2 1 [20 0] [4 4]] (REQUEST)
r 1.008785916 _14_ RTR  --- 0 AODV 48 [0 ffffffff 0 800] [energy 99.997965 ei 0.000 es 0.000 et 0.001 er 0.002] ------- [0:255 -1:255 29 0] [0x2 2 1 [20 0] [4 4]] (REQUEST)
r 1.008785968 _19_ RTR  --- 0 AODV 48 [0 ffffffff 0 800] [energy 99.997965 ei 0.000 es 0.000 et 0.001 er 0.002] ------- [0:255 -1:255 29 0] [0x2 2 1 [20 0] [4 4]] (REQUEST)
r 1.008786147 _17_ RTR  --- 0 AODV 48 [0 ffffffff 0 800] [energy 99.997965 ei 0.000 es 0.000 et 0.001 er 0.002] ------- [0:255 -1:255 29 0] [0x2 2 1 [20 0] [4 4]] (REQUEST)
r 1.008786159 _24_ RTR  --- 0 AODV 48 [0 ffffffff 0 800] [energy 99.998728 ei 0.000 es 0.000 et 0.000 er 0.001] ------- [0:255 -1:255 29 0] [0x2 2 1 [20 0] [4 4]] (REQUEST)
r 1.008786171 _4_ RTR  --- 0 AODV 48 [0 ffffffff 0 800] [energy 99.997965 ei 0.000 es 0.000 et 0.001 er 0.002] ------- [0:255 -1:255 29 0] [0x2 2 1 [20 0] [4 4]] (REQUEST)
N -t 1.009105 -n 22 -e 99.998982
N -t 1.009105 -n 18 -e 99.998219
N -t 1.009105 -n 12 -e 99.998982
N -t 1.009106 -n 16 -e 99.997965
N -t 1.009106 -n 3 -e 99.997965
N -t 1.009106 -n 10 -e 99.997965
N -t 1.009106 -n 23 -e 99.997710
N -t 1.009106 -n 9 -e 99.997965
N -t 1.009106 -n 5 -e 99.997710
N -t 1.009106 -n 20 -e 99.999491
N -t 1.009106 -n 15 -e 99.997965
N -t 1.009106 -n 21 -e 99.997965
N -t 1.009106 -n 1 -e 99.997965
N -t 1.009106 -n 17 -e 99.997710
N -t 1.009107 -n 13 -e 99.997965
N -t 1.009107 -n 4 -e 99.997710
N -t 1.009107 -n 7 -e 99.997965
N -t 1.009107 -n 19 -e 99.997710
s 1.009400123 _7_ RTR  --- 0 AODV 48 [0 ffffffff 4 800] [energy 99.997965 ei 0.000 es 0.000 et 0.000 er 0.002] ------- [7:255 -1:255 29 0] [0x2 2 1 [20 0] [4 4]] (REQUEST)
N -t 1.009476 -n 4 -e 99.997600
N -t 1.009476 -n 14 -e 99.997710
N -t 1.009476 -n 19 -e 99.997600
N -t 1.009476 -n 15 -e 99.997854
N -t 1.009477 -n 5 -e 99.997599
N -t 1.009477 -n 17 -e 99.997599
N -t 1.009477 -n 9 -e 99.997854
N -t 1.009477 -n 21 -e 99.997854
N -t 1.009477 -n 7 -e 99.997854
N -t 1.009477 -n 23 -e 99.997599
N -t 1.009477 -n 0 -e 99.997710
N -t 1.009477 -n 3 -e 99.997853
N -t 1.009477 -n 16 -e 99.997853
N -t 1.009477 -n 1 -e 99.997854
N -t 1.009477 -n 18 -e 99.998108
N -t 1.009477 -n 6 -e 99.997965
N -t 1.009477 -n 10 -e 99.997853
s 1.009573354 _21_ RTR  --- 0 AODV 48 [0 ffffffff 4 800] [energy 99.997854 ei 0.000 es 0.000 et 0.000 er 0.002] ------- [21:255 -1:255 29 0] [0x2 2 1 [20 0] [4 4]] (REQUEST)
s 1.009606779 _16_ RTR  --- 0 AODV 48 [0 ffffffff 5 800] [energy 99.997853 ei 0.000 es 0.000 et 0.000 er 0.002] ------- [16:255 -1:255 28 0] [0x2 3 1 [20 0] [4 4]] (REQUEST)
s 1.009772053 _9_ RTR  --- 0 AODV 48 [0 ffffffff 4 800] [energy 99.997854 ei 0.000 es 0.000 et 0.000 er 0.002] ------- [9:255 -1:255 29 0] [0x2 2 1 [20 0] [4 4]] (REQUEST)
s 1.009878143 _24_ RTR  --- 0 AODV 48 [0 ffffffff 0 800] [energy 99.998728 ei 0.000 es 0.000 et 0.000 er 0.001] ------- [24:255 -1:255 28 0] [0x2 3 1 [20 0] [4 4]] (REQUEST)
r 1.009978277 _22_ RTR  --- 0 AODV 48 [0 ffffffff 8 800] [energy 99.998982 ei 0.000 es 0.000 et 0.000 er 0.001] ------- [8:255 -1:255 28 0] [0x2 3 1 [20 0] [4 4]] (REQUEST)
r 1.009978387 _18_ RTR  --- 0 AODV 48 [0 ffffffff 8 800] [energy 99.998108 ei 0.000 es 0.000 et 0.000 er 0.002] ------- [8:255 -1:255 28 0] [0x2 3 1 [20 0] [4 4]] (REQUEST)
r 1.009978395 _12_ RTR  --- 0 AODV 48 [0 ffffffff 8 800] [energy 99.998982 ei 0.000 es 0.000 et 0.000 er 0.001] ------- [8:255 -1:255 28 0] [0x2 3 1 [20 0] [4 4]] (REQUEST)
r 1.009978534 _16_ RTR  --- 0 AODV 48 [0 ffffffff 8 800] [energy 99.997853 ei 0.000 es 0.000 et 0.000 er 0.002] ------- [8:255 -1:255 28 0] [0x2 3 1 [20 0] [4 4]] (REQUEST)
r 1.009978644 _3_ RTR  --- 0 AODV 48 [0 ffffffff 8 800] [energy 99.997853 ei 0.000 es 0.000 et 0.000 er 0.002] ------- [8:255 -1:255 28 0] [0x2 3 1 [20 0] [4 4]] (REQUEST)
r 1.009978693 _10_ RTR  --- 0 AODV 48 [0 ffffffff 8 800] [energy 99.997853 ei 0.000 es 0.000 et 0.000 er 0.002] ------- [8:255 -1:255 28 0] [0x2 3 1 [20 0] [4 4]] (REQUEST)
s 1.010086479 _12_ RTR  --- 0 AODV 48 [0 ffffffff 8 800] [energy 99.998982 ei 0.000 es 0.000 et 0.000 er 0.001] ------- [12:255 -1:255 27 0] [0x2 4 1 [20 0] [4 4]] (REQUEST)
N -t 1.010154 -n 6 -e 99.997762
N -t 1.010154 -n 0 -e 99.997507
N -t 1.010154 -n 7 -e 99.997651
N -t 1.010154 -n 14 -e 99.997507
N -t 1.010154 -n 11 -e 99.997965
N -t 1.010154 -n 19 -e 99.997396
N -t 1.010155 -n 17 -e 99.997396
N -t 1.010155 -n 1 -e 99.997650
N -t 1.010155 -n 4 -e 99.997396
N -t 1.010155 -n 21 -e 99.997650
N -t 1.010155 -n 13 -e 99.997710
s 1.010181258 _1_ RTR  --- 0 AODV 48 [0 ffffffff 5 800] [energy 99.997650 ei 0.000 es 0.000 et 0.000 er 0.002] ------- [1:255 -1:255 28 0] [0x2 3 1 [20 0] [4 4]] (REQUEST)
N -t 1.010502 -n 22 -e 99.998728
N -t 1.010502 -n 8 -e 99.997965
N -t 1.010502 -n 18 -e 99.997853
N -t 1.010502 -n 20 -e 99.999237
N -t 1.010502 -n 16 -e 99.997599
N -t 1.010502 -n 3 -e 99.997599
N -t 1.010502 -n 10 -e 99.997599
N -t 1.010503 -n 9 -e 99.997599
N -t 1.010503 -n 23 -e 99.997345
N -t 1.010503 -n 5 -e 99.997345
N -t 1.010503 -n 15 -e 99.997599
N -t 1.010503 -n 21 -e 99.997546
N -t 1.010503 -n 1 -e 99.997546
N -t 1.010503 -n 17 -e 99.997291
N -t 1.010503 -n 13 -e 99.997606
s 1.010562304 _22_ RTR  --- 0 AODV 48 [0 ffffffff 8 800] [energy 99.998728 ei 0.000 es 0.000 et 0.000 er 0.001] ------- [22:255 -1:255 27 0] [0x2 4 1 [20 0] [4 4]] (REQUEST)
s 1.010706555 _18_ RTR  --- 0 AODV 48 [0 ffffffff 5 800] [energy 99.997853 ei 0.000 es 0.000 et 0.000 er 0.002] ------- [18:255 -1:255 28 0] [0x2 3 1 [20 0] [4 4]] (REQUEST)
r 1.011374617 _22_ RTR  --- 0 AODV 48 [0 ffffffff c 800] [energy 99.998728 ei 0.000 es 0.000 et 0.000 er 0.001] ------- [12:255 -1:255 27 0] [0x2 4 1 [20 0] [4 4]] (REQUEST)
r 1.011374869 _8_ RTR  --- 0 AODV 48 [0 ffffffff c 800] [energy 99.997965 ei 0.000 es 0.000 et 0.001 er 0.002] ------- [12:255 -1:255 27 0] [0x2 4 1 [20 0] [4 4]] (REQUEST)
r 1.011375213 _18_ RTR  --- 0 AODV 48 [0 ffffffff c 800] [energy 99.997853 ei 0.000 es 0.000 et 0.000 er 0.002] ------- [12:255 -1:255 27 0] [0x2 4 1 [20 0] [4 4]] (REQUEST)
N -t 1.011580 -n 12 -e 99.998219
N -t 1.011580 -n 8 -e 99.997710
N -t 1.011580 -n 18 -e 99.997599
N -t 1.011580 -n 16 -e 99.997345
N -t 1.011580 -n 20 -e 99.998982
N -t 1.011580 -n 10 -e 99.997344
N -t 1.011581 -n 3 -e 99.997345
N -t 1.011581 -n 23 -e 99.997090
N -t 1.011581 -n 9 -e 99.997345
N -t 1.011581 -n 5 -e 99.997090
N -t 1.011581 -n 15 -e 99.997345
N -t 1.011581 -n 21 -e 99.997291
N -t 1.011581 -n 1 -e 99.997291
N -t 1.011581 -n 17 -e 99.997037
N -t 1.011581 -n 13 -e 99.997351
N -t 1.011617 -n 17 -e 99.997026
N -t 1.011617 -n 19 -e 99.997142
N -t 1.011617 -n 21 -e 99.997281
N -t 1.011617 -n 0 -e 99.997253
N -t 1.011617 -n 14 -e 99.997253
N -t 1.011617 -n 1 -e 99.997281
N -t 1.011617 -n 4 -e 99.997142
N -t 1.011617 -n 6 -e 99.997507
N -t 1.011617 -n 5 -e 99.997080
N -t 1.011617 -n 23 -e 99.997079
N -t 1.011617 -n 9 -e 99.997334
N -t 1.011617 -n 16 -e 99.997333
N -t 1.011617 -n 24 -e 99.997965
N -t 1.011617 -n 11 -e 99.997710
N -t 1.011617 -n 2 -e 99.997456
N -t 1.011617 -n 15 -e 99.997334
N -t 1.011617 -n 10 -e 99.997333
N -t 1.011617 -n 3 -e 99.997334
N -t 1.011618 -n 13 -e 99.997341
N -t 1.011618 -n 18 -e 99.997588
N -t 1.011618 -n 8 -e 99.997699
r 1.012452756 _12_ RTR  --- 0 AODV 48 [0 ffffffff 16 800] [energy 99.998219 ei 0.000 es 0.000 et 0.001 er 0.001] ------- [22:255 -1:255 27 0] [0x2 4 1 [20 0] [4 4]] (REQUEST)
r 1.012452890 _8_ RTR  --- 0 AODV 48 [0 ffffffff 16 800] [energy 99.997699 ei 0.000 es 0.000 et 0.001 er 0.002] ------- [22:255 -1:255 27 0] [0x2 4 1 [20 0] [4 4]] (REQUEST)
r 1.012453259 _18_ RTR  --- 0 AODV 48 [0 ffffffff 16 800] [energy 99.997588 ei 0.000 es 0.000 et 0.000 er 0.002] ------- [22:255 -1:255 27 0] [0x2 4 1 [20 0] [4 4]] (REQUEST)
r 1.012489684 _19_ RTR  --- 0 AODV 48 [0 ffffffff 7 800] [energy 99.997142 ei 0.000 es 0.000 et 0.001 er 0.002] ------- [7:255 -1:255 29 0] [0x2 2 1 [20 0] [4 4]] (REQUEST)
r 1.012489758 _0_ RTR  --- 0 AODV 48 [0 ffffffff 7 800] [energy 99.997253 ei 0.000 es 0.000 et 0.001 er 0.002] ------- [7:255 -1:255 29 0] [0x2 2 1 [20 0] [4 4]] (REQUEST)
r 1.012489824 _14_ RTR  --- 0 AODV 48 [0 ffffffff 7 800] [energy 99.997253 ei 0.000 es 0.000 et 0.001 er 0.002] ------- [7:255 -1:255 29 0] [0x2 2 1 [20 0] [4 4]] (REQUEST)
r 1.012489833 _4_ RTR  --- 0 AODV 48 [0 ffffffff 7 800] [energy 99.997142 ei 0.000 es 0.000 et 0.001 er 0.002] ------- [7:255 -1:255 29 0] [0x2 2 1 [20 0] [4 4]] (REQUEST)
r 1.012489989 _6_ RTR  --- 0 AODV 48 [0 ffffffff 7 800] [energy 99.997507 ei 0.000 es 0.000 et 0.000 er 0.002] ------- [7:255 -1:255 29 0] [0x2 2 1 [20 0] [4 4]] (REQUEST)
s 1.012840939 _6_ RTR  --- 0 AODV 48 [0 ffffffff 0 800] [energy 99.997507 ei 0.000 es 0.000 et 0.000 er 0.002] ------- [6:255 -1:255 28 0] [0x2 3 1 [20 0] [4 4]] (REQUEST)
N -t 1.012900 -n 9 -e 99.997079
N -t 1.012900 -n 5 -e 99.996825
N -t 1.012900 -n 3 -e 99.997079
N -t 1.012900 -n 23 -e 99.996825
N -t 1.012900 -n 18 -e 99.997333
N -t 1.012900 -n 2 -e 99.997202
N -t 1.012900 -n 4 -e 99.996887
N -t 1.012900 -n 21 -e 99.997026
N -t 1.012900 -n 16 -e 99.997079
N -t 1.012900 -n 17 -e 99.996772
N -t 1.012900 -n 19 -e 99.996887
N -t 1.012901 -n 14 -e 99.996998
N -t 1.012901 -n 8 -e 99.997445
N -t 1.012901 -n 7 -e 99.996887
N -t 1.012901 -n 1 -e 99.997026
N -t 1.012901 -n 10 -e 99.997079
N -t 1.012901 -n 22 -e 99.997965
N -t 1.012901 -n 12 -e 99.997965
N -t 1.012901 -n 0 -e 99.996998
N -t 1.012901 -n 6 -e 99.997253
r 1.013772858 _9_ RTR  --- 0 AODV 48 [0 ffffffff f 800] [energy 99.997079 ei 0.000 es 0.000 et 0.000 er 0.003] ------- [15:255 -1:255 29 0] [0x2 2 1 [20 0] [4 4]] (REQUEST)
r 1.013772881 _5_ RTR  --- 0 AODV 48 [0 ffffffff f 800] [energy 99.996825 ei 0.000 es 0.000 et 0.001 er 0.003] ------- [15:255 -1:255 29 0] [0x2 2 1 [20 0] [4 4]] (REQUEST)
r 1.013772914 _3_ RTR  --- 0 AODV 48 [0 ffffffff f 800] [energy 99.997079 ei 0.000 es 0.000 et 0.000 er 0.003] ------- [15:255 -1:255 29 0] [0x2 2 1 [20 0] [4 4]] (REQUEST)
r 1.013772992 _23_ RTR  --- 0 AODV 48 [0 ffffffff f 800] [energy 99.996825 ei 0.000 es 0.000 et 0.001 er 0.003] ------- [15:255 -1:255 29 0] [0x2 2 1 [20 0] [4 4]] (REQUEST)
r 1.013773168 _18_ RTR  --- 0 AODV 48 [0 ffffffff f 800] [energy 99.997333 ei 0.000 es 0.000 et 0.000 er 0.003] ------- [15:255 -1:255 29 0] [0x2 2 1 [20 0] [4 4]] (REQUEST)
r 1.013773174 _2_ RTR  --- 0 AODV 48 [0 ffffffff f 800] [energy 99.997202 ei 0.000 es 0.000 et 0.001 er 0.002] ------- [15:255 -1:255 29 0] [0x2 2 1 [20 0] [4 4]] (REQUEST)
r 1.013773175 _4_ RTR  --- 0 AODV 48 [0 ffffffff f 800] [energy 99.996887 ei 0.000 es 0.000 et 0.001 er 0.003] ------- [15:255 -1:255 29 0] [0x2 2 1 [20 0] [4 4]] (REQUEST)